# vtk DataFile Version 3.0
#This file was generated by the deal.II library on 2023/1/15 at 18:43:29
ASCII
DATASET UNSTRUCTURED_GRID

POINTS 5000 double
0 0 0
0.04 0 0
0 0.04 0
0.04 0.04 0
0.04 0 0
0.08 0 0
0.04 0.04 0
0.08 0.04 0
0.08 0 0
0.12 0 0
0.08 0.04 0
0.12 0.04 0
0.12 0 0
0.16 0 0
0.12 0.04 0
0.16 0.04 0
0.16 0 0
0.2 0 0
0.16 0.04 0
0.2 0.04 0
0.2 0 0
0.24 0 0
0.2 0.04 0
0.24 0.04 0
0.24 0 0
0.28 0 0
0.24 0.04 0
0.28 0.04 0
0.28 0 0
0.32 0 0
0.28 0.04 0
0.32 0.04 0
0.32 0 0
0.36 0 0
0.32 0.04 0
0.36 0.04 0
0.36 0 0
0.4 0 0
0.36 0.04 0
0.4 0.04 0
0.4 0 0
0.44 0 0
0.4 0.04 0
0.44 0.04 0
0.44 0 0
0.48 0 0
0.44 0.04 0
0.48 0.04 0
0.48 0 0
0.52 0 0
0.48 0.04 0
0.52 0.04 0
0.52 0 0
0.56 0 0
0.52 0.04 0
0.56 0.04 0
0.56 0 0
0.6 0 0
0.56 0.04 0
0.6 0.04 0
0.6 0 0
0.64 0 0
0.6 0.04 0
0.64 0.04 0
0.64 0 0
0.68 0 0
0.64 0.04 0
0.68 0.04 0
0.68 0 0
0.72 0 0
0.68 0.04 0
0.72 0.04 0
0.72 0 0
0.76 0 0
0.72 0.04 0
0.76 0.04 0
0.76 0 0
0.8 0 0
0.76 0.04 0
0.8 0.04 0
0.8 0 0
0.84 0 0
0.8 0.04 0
0.84 0.04 0
0.84 0 0
0.88 0 0
0.84 0.04 0
0.88 0.04 0
0.88 0 0
0.92 0 0
0.88 0.04 0
0.92 0.04 0
0.92 0 0
0.96 0 0
0.92 0.04 0
0.96 0.04 0
0.96 0 0
1 0 0
0.96 0.04 0
1 0.04 0
1 0 0
1.04 0 0
1 0.04 0
1.04 0.04 0
1.04 0 0
1.08 0 0
1.04 0.04 0
1.08 0.04 0
1.08 0 0
1.12 0 0
1.08 0.04 0
1.12 0.04 0
1.12 0 0
1.16 0 0
1.12 0.04 0
1.16 0.04 0
1.16 0 0
1.2 0 0
1.16 0.04 0
1.2 0.04 0
1.2 0 0
1.24 0 0
1.2 0.04 0
1.24 0.04 0
1.24 0 0
1.28 0 0
1.24 0.04 0
1.28 0.04 0
1.28 0 0
1.32 0 0
1.28 0.04 0
1.32 0.04 0
1.32 0 0
1.36 0 0
1.32 0.04 0
1.36 0.04 0
1.36 0 0
1.4 0 0
1.36 0.04 0
1.4 0.04 0
1.4 0 0
1.44 0 0
1.4 0.04 0
1.44 0.04 0
1.44 0 0
1.48 0 0
1.44 0.04 0
1.48 0.04 0
1.48 0 0
1.52 0 0
1.48 0.04 0
1.52 0.04 0
1.52 0 0
1.56 0 0
1.52 0.04 0
1.56 0.04 0
1.56 0 0
1.6 0 0
1.56 0.04 0
1.6 0.04 0
1.6 0 0
1.64 0 0
1.6 0.04 0
1.64 0.04 0
1.64 0 0
1.68 0 0
1.64 0.04 0
1.68 0.04 0
1.68 0 0
1.72 0 0
1.68 0.04 0
1.72 0.04 0
1.72 0 0
1.76 0 0
1.72 0.04 0
1.76 0.04 0
1.76 0 0
1.8 0 0
1.76 0.04 0
1.8 0.04 0
1.8 0 0
1.84 0 0
1.8 0.04 0
1.84 0.04 0
1.84 0 0
1.88 0 0
1.84 0.04 0
1.88 0.04 0
1.88 0 0
1.92 0 0
1.88 0.04 0
1.92 0.04 0
1.92 0 0
1.96 0 0
1.92 0.04 0
1.96 0.04 0
1.96 0 0
2 0 0
1.96 0.04 0
2 0.04 0
0 0.04 0
0.04 0.04 0
0 0.08 0
0.04 0.08 0
0.04 0.04 0
0.08 0.04 0
0.04 0.08 0
0.08 0.08 0
0.08 0.04 0
0.12 0.04 0
0.08 0.08 0
0.12 0.08 0
0.12 0.04 0
0.16 0.04 0
0.12 0.08 0
0.16 0.08 0
0.16 0.04 0
0.2 0.04 0
0.16 0.08 0
0.2 0.08 0
0.2 0.04 0
0.24 0.04 0
0.2 0.08 0
0.24 0.08 0
0.24 0.04 0
0.28 0.04 0
0.24 0.08 0
0.28 0.08 0
0.28 0.04 0
0.32 0.04 0
0.28 0.08 0
0.32 0.08 0
0.32 0.04 0
0.36 0.04 0
0.32 0.08 0
0.36 0.08 0
0.36 0.04 0
0.4 0.04 0
0.36 0.08 0
0.4 0.08 0
0.4 0.04 0
0.44 0.04 0
0.4 0.08 0
0.44 0.08 0
0.44 0.04 0
0.48 0.04 0
0.44 0.08 0
0.48 0.08 0
0.48 0.04 0
0.52 0.04 0
0.48 0.08 0
0.52 0.08 0
0.52 0.04 0
0.56 0.04 0
0.52 0.08 0
0.56 0.08 0
0.56 0.04 0
0.6 0.04 0
0.56 0.08 0
0.6 0.08 0
0.6 0.04 0
0.64 0.04 0
0.6 0.08 0
0.64 0.08 0
0.64 0.04 0
0.68 0.04 0
0.64 0.08 0
0.68 0.08 0
0.68 0.04 0
0.72 0.04 0
0.68 0.08 0
0.72 0.08 0
0.72 0.04 0
0.76 0.04 0
0.72 0.08 0
0.76 0.08 0
0.76 0.04 0
0.8 0.04 0
0.76 0.08 0
0.8 0.08 0
0.8 0.04 0
0.84 0.04 0
0.8 0.08 0
0.84 0.08 0
0.84 0.04 0
0.88 0.04 0
0.84 0.08 0
0.88 0.08 0
0.88 0.04 0
0.92 0.04 0
0.88 0.08 0
0.92 0.08 0
0.92 0.04 0
0.96 0.04 0
0.92 0.08 0
0.96 0.08 0
0.96 0.04 0
1 0.04 0
0.96 0.08 0
1 0.08 0
1 0.04 0
1.04 0.04 0
1 0.08 0
1.04 0.08 0
1.04 0.04 0
1.08 0.04 0
1.04 0.08 0
1.08 0.08 0
1.08 0.04 0
1.12 0.04 0
1.08 0.08 0
1.12 0.08 0
1.12 0.04 0
1.16 0.04 0
1.12 0.08 0
1.16 0.08 0
1.16 0.04 0
1.2 0.04 0
1.16 0.08 0
1.2 0.08 0
1.2 0.04 0
1.24 0.04 0
1.2 0.08 0
1.24 0.08 0
1.24 0.04 0
1.28 0.04 0
1.24 0.08 0
1.28 0.08 0
1.28 0.04 0
1.32 0.04 0
1.28 0.08 0
1.32 0.08 0
1.32 0.04 0
1.36 0.04 0
1.32 0.08 0
1.36 0.08 0
1.36 0.04 0
1.4 0.04 0
1.36 0.08 0
1.4 0.08 0
1.4 0.04 0
1.44 0.04 0
1.4 0.08 0
1.44 0.08 0
1.44 0.04 0
1.48 0.04 0
1.44 0.08 0
1.48 0.08 0
1.48 0.04 0
1.52 0.04 0
1.48 0.08 0
1.52 0.08 0
1.52 0.04 0
1.56 0.04 0
1.52 0.08 0
1.56 0.08 0
1.56 0.04 0
1.6 0.04 0
1.56 0.08 0
1.6 0.08 0
1.6 0.04 0
1.64 0.04 0
1.6 0.08 0
1.64 0.08 0
1.64 0.04 0
1.68 0.04 0
1.64 0.08 0
1.68 0.08 0
1.68 0.04 0
1.72 0.04 0
1.68 0.08 0
1.72 0.08 0
1.72 0.04 0
1.76 0.04 0
1.72 0.08 0
1.76 0.08 0
1.76 0.04 0
1.8 0.04 0
1.76 0.08 0
1.8 0.08 0
1.8 0.04 0
1.84 0.04 0
1.8 0.08 0
1.84 0.08 0
1.84 0.04 0
1.88 0.04 0
1.84 0.08 0
1.88 0.08 0
1.88 0.04 0
1.92 0.04 0
1.88 0.08 0
1.92 0.08 0
1.92 0.04 0
1.96 0.04 0
1.92 0.08 0
1.96 0.08 0
1.96 0.04 0
2 0.04 0
1.96 0.08 0
2 0.08 0
0 0.08 0
0.04 0.08 0
0 0.12 0
0.04 0.12 0
0.04 0.08 0
0.08 0.08 0
0.04 0.12 0
0.08 0.12 0
0.08 0.08 0
0.12 0.08 0
0.08 0.12 0
0.12 0.12 0
0.12 0.08 0
0.16 0.08 0
0.12 0.12 0
0.16 0.12 0
0.16 0.08 0
0.2 0.08 0
0.16 0.12 0
0.2 0.12 0
0.2 0.08 0
0.24 0.08 0
0.2 0.12 0
0.24 0.12 0
0.24 0.08 0
0.28 0.08 0
0.24 0.12 0
0.28 0.12 0
0.28 0.08 0
0.32 0.08 0
0.28 0.12 0
0.32 0.12 0
0.32 0.08 0
0.36 0.08 0
0.32 0.12 0
0.36 0.12 0
0.36 0.08 0
0.4 0.08 0
0.36 0.12 0
0.4 0.12 0
0.4 0.08 0
0.44 0.08 0
0.4 0.12 0
0.44 0.12 0
0.44 0.08 0
0.48 0.08 0
0.44 0.12 0
0.48 0.12 0
0.48 0.08 0
0.52 0.08 0
0.48 0.12 0
0.52 0.12 0
0.52 0.08 0
0.56 0.08 0
0.52 0.12 0
0.56 0.12 0
0.56 0.08 0
0.6 0.08 0
0.56 0.12 0
0.6 0.12 0
0.6 0.08 0
0.64 0.08 0
0.6 0.12 0
0.64 0.12 0
0.64 0.08 0
0.68 0.08 0
0.64 0.12 0
0.68 0.12 0
0.68 0.08 0
0.72 0.08 0
0.68 0.12 0
0.72 0.12 0
0.72 0.08 0
0.76 0.08 0
0.72 0.12 0
0.76 0.12 0
0.76 0.08 0
0.8 0.08 0
0.76 0.12 0
0.8 0.12 0
0.8 0.08 0
0.84 0.08 0
0.8 0.12 0
0.84 0.12 0
0.84 0.08 0
0.88 0.08 0
0.84 0.12 0
0.88 0.12 0
0.88 0.08 0
0.92 0.08 0
0.88 0.12 0
0.92 0.12 0
0.92 0.08 0
0.96 0.08 0
0.92 0.12 0
0.96 0.12 0
0.96 0.08 0
1 0.08 0
0.96 0.12 0
1 0.12 0
1 0.08 0
1.04 0.08 0
1 0.12 0
1.04 0.12 0
1.04 0.08 0
1.08 0.08 0
1.04 0.12 0
1.08 0.12 0
1.08 0.08 0
1.12 0.08 0
1.08 0.12 0
1.12 0.12 0
1.12 0.08 0
1.16 0.08 0
1.12 0.12 0
1.16 0.12 0
1.16 0.08 0
1.2 0.08 0
1.16 0.12 0
1.2 0.12 0
1.2 0.08 0
1.24 0.08 0
1.2 0.12 0
1.24 0.12 0
1.24 0.08 0
1.28 0.08 0
1.24 0.12 0
1.28 0.12 0
1.28 0.08 0
1.32 0.08 0
1.28 0.12 0
1.32 0.12 0
1.32 0.08 0
1.36 0.08 0
1.32 0.12 0
1.36 0.12 0
1.36 0.08 0
1.4 0.08 0
1.36 0.12 0
1.4 0.12 0
1.4 0.08 0
1.44 0.08 0
1.4 0.12 0
1.44 0.12 0
1.44 0.08 0
1.48 0.08 0
1.44 0.12 0
1.48 0.12 0
1.48 0.08 0
1.52 0.08 0
1.48 0.12 0
1.52 0.12 0
1.52 0.08 0
1.56 0.08 0
1.52 0.12 0
1.56 0.12 0
1.56 0.08 0
1.6 0.08 0
1.56 0.12 0
1.6 0.12 0
1.6 0.08 0
1.64 0.08 0
1.6 0.12 0
1.64 0.12 0
1.64 0.08 0
1.68 0.08 0
1.64 0.12 0
1.68 0.12 0
1.68 0.08 0
1.72 0.08 0
1.68 0.12 0
1.72 0.12 0
1.72 0.08 0
1.76 0.08 0
1.72 0.12 0
1.76 0.12 0
1.76 0.08 0
1.8 0.08 0
1.76 0.12 0
1.8 0.12 0
1.8 0.08 0
1.84 0.08 0
1.8 0.12 0
1.84 0.12 0
1.84 0.08 0
1.88 0.08 0
1.84 0.12 0
1.88 0.12 0
1.88 0.08 0
1.92 0.08 0
1.88 0.12 0
1.92 0.12 0
1.92 0.08 0
1.96 0.08 0
1.92 0.12 0
1.96 0.12 0
1.96 0.08 0
2 0.08 0
1.96 0.12 0
2 0.12 0
0 0.12 0
0.04 0.12 0
0 0.16 0
0.04 0.16 0
0.04 0.12 0
0.08 0.12 0
0.04 0.16 0
0.08 0.16 0
0.08 0.12 0
0.12 0.12 0
0.08 0.16 0
0.12 0.16 0
0.12 0.12 0
0.16 0.12 0
0.12 0.16 0
0.16 0.16 0
0.16 0.12 0
0.2 0.12 0
0.16 0.16 0
0.2 0.16 0
0.2 0.12 0
0.24 0.12 0
0.2 0.16 0
0.24 0.16 0
0.24 0.12 0
0.28 0.12 0
0.24 0.16 0
0.28 0.16 0
0.28 0.12 0
0.32 0.12 0
0.28 0.16 0
0.32 0.16 0
0.32 0.12 0
0.36 0.12 0
0.32 0.16 0
0.36 0.16 0
0.36 0.12 0
0.4 0.12 0
0.36 0.16 0
0.4 0.16 0
0.4 0.12 0
0.44 0.12 0
0.4 0.16 0
0.44 0.16 0
0.44 0.12 0
0.48 0.12 0
0.44 0.16 0
0.48 0.16 0
0.48 0.12 0
0.52 0.12 0
0.48 0.16 0
0.52 0.16 0
0.52 0.12 0
0.56 0.12 0
0.52 0.16 0
0.56 0.16 0
0.56 0.12 0
0.6 0.12 0
0.56 0.16 0
0.6 0.16 0
0.6 0.12 0
0.64 0.12 0
0.6 0.16 0
0.64 0.16 0
0.64 0.12 0
0.68 0.12 0
0.64 0.16 0
0.68 0.16 0
0.68 0.12 0
0.72 0.12 0
0.68 0.16 0
0.72 0.16 0
0.72 0.12 0
0.76 0.12 0
0.72 0.16 0
0.76 0.16 0
0.76 0.12 0
0.8 0.12 0
0.76 0.16 0
0.8 0.16 0
0.8 0.12 0
0.84 0.12 0
0.8 0.16 0
0.84 0.16 0
0.84 0.12 0
0.88 0.12 0
0.84 0.16 0
0.88 0.16 0
0.88 0.12 0
0.92 0.12 0
0.88 0.16 0
0.92 0.16 0
0.92 0.12 0
0.96 0.12 0
0.92 0.16 0
0.96 0.16 0
0.96 0.12 0
1 0.12 0
0.96 0.16 0
1 0.16 0
1 0.12 0
1.04 0.12 0
1 0.16 0
1.04 0.16 0
1.04 0.12 0
1.08 0.12 0
1.04 0.16 0
1.08 0.16 0
1.08 0.12 0
1.12 0.12 0
1.08 0.16 0
1.12 0.16 0
1.12 0.12 0
1.16 0.12 0
1.12 0.16 0
1.16 0.16 0
1.16 0.12 0
1.2 0.12 0
1.16 0.16 0
1.2 0.16 0
1.2 0.12 0
1.24 0.12 0
1.2 0.16 0
1.24 0.16 0
1.24 0.12 0
1.28 0.12 0
1.24 0.16 0
1.28 0.16 0
1.28 0.12 0
1.32 0.12 0
1.28 0.16 0
1.32 0.16 0
1.32 0.12 0
1.36 0.12 0
1.32 0.16 0
1.36 0.16 0
1.36 0.12 0
1.4 0.12 0
1.36 0.16 0
1.4 0.16 0
1.4 0.12 0
1.44 0.12 0
1.4 0.16 0
1.44 0.16 0
1.44 0.12 0
1.48 0.12 0
1.44 0.16 0
1.48 0.16 0
1.48 0.12 0
1.52 0.12 0
1.48 0.16 0
1.52 0.16 0
1.52 0.12 0
1.56 0.12 0
1.52 0.16 0
1.56 0.16 0
1.56 0.12 0
1.6 0.12 0
1.56 0.16 0
1.6 0.16 0
1.6 0.12 0
1.64 0.12 0
1.6 0.16 0
1.64 0.16 0
1.64 0.12 0
1.68 0.12 0
1.64 0.16 0
1.68 0.16 0
1.68 0.12 0
1.72 0.12 0
1.68 0.16 0
1.72 0.16 0
1.72 0.12 0
1.76 0.12 0
1.72 0.16 0
1.76 0.16 0
1.76 0.12 0
1.8 0.12 0
1.76 0.16 0
1.8 0.16 0
1.8 0.12 0
1.84 0.12 0
1.8 0.16 0
1.84 0.16 0
1.84 0.12 0
1.88 0.12 0
1.84 0.16 0
1.88 0.16 0
1.88 0.12 0
1.92 0.12 0
1.88 0.16 0
1.92 0.16 0
1.92 0.12 0
1.96 0.12 0
1.92 0.16 0
1.96 0.16 0
1.96 0.12 0
2 0.12 0
1.96 0.16 0
2 0.16 0
0 0.16 0
0.04 0.16 0
0 0.2 0
0.04 0.2 0
0.04 0.16 0
0.08 0.16 0
0.04 0.2 0
0.08 0.2 0
0.08 0.16 0
0.12 0.16 0
0.08 0.2 0
0.12 0.2 0
0.12 0.16 0
0.16 0.16 0
0.12 0.2 0
0.16 0.2 0
0.16 0.16 0
0.2 0.16 0
0.16 0.2 0
0.2 0.2 0
0.2 0.16 0
0.24 0.16 0
0.2 0.2 0
0.24 0.2 0
0.24 0.16 0
0.28 0.16 0
0.24 0.2 0
0.28 0.2 0
0.28 0.16 0
0.32 0.16 0
0.28 0.2 0
0.32 0.2 0
0.32 0.16 0
0.36 0.16 0
0.32 0.2 0
0.36 0.2 0
0.36 0.16 0
0.4 0.16 0
0.36 0.2 0
0.4 0.2 0
0.4 0.16 0
0.44 0.16 0
0.4 0.2 0
0.44 0.2 0
0.44 0.16 0
0.48 0.16 0
0.44 0.2 0
0.48 0.2 0
0.48 0.16 0
0.52 0.16 0
0.48 0.2 0
0.52 0.2 0
0.52 0.16 0
0.56 0.16 0
0.52 0.2 0
0.56 0.2 0
0.56 0.16 0
0.6 0.16 0
0.56 0.2 0
0.6 0.2 0
0.6 0.16 0
0.64 0.16 0
0.6 0.2 0
0.64 0.2 0
0.64 0.16 0
0.68 0.16 0
0.64 0.2 0
0.68 0.2 0
[...]
POINT_DATA 5000
SCALARS c1 double 1
LOOKUP_TABLE default
0.00981392 0.00980593 0.00981496 0.00980701 0.00980593 0.00978169 0.00980701 0.00978292 0.00978169 0.00974048 0.00978292 0.00974195 0.00974048 0.00968125 0.00974195 0.00968306 0.00968125 0.00960282 0.00968306 0.00960508 0.00960282 0.00950417 0.00960508 0.00950697 0.00950417 0.00938466 0.00950697 0.00938811 0.00938466 0.0092443 0.00938811 0.00924847 0.0092443 0.00908379 0.00924847 0.00908876 0.00908379 0.00890453 0.00908876 0.00891035 0.00890453 0.00870838 0.00891035 0.00871514 0.00870838 0.00849763 0.00871514 0.0085053 0.00849763 0.00827382 0.0085053 0.00828278 0.00827382 0.00804108 0.00828278 0.00805023 0.00804108 0.00779165 0.00805023 0.00780584 0.00779165 0.00756261 0.00780584 0.00756326 0.00756261 0.00721318 0.00756326 0.00727269 0.00721318 0.00729256 0.00727269 0.00712732 0.00729256 0.00579433 0.00712732 0.00639679 0.00579433 0.0121003 0.00639679 0.00789095 0.0121003 0.314995 0.00789095 0.229659 0.314995 0.814351 0.229659 0.656471 0.814351 0.999498 0.656471 0.981869 0.999498 0.995423 0.981869 0.997164 0.995423 0.996283 0.997164 0.995538 0.996283 0.995423 0.995538 0.997164 0.995423 0.999498 0.997164 0.981869 0.999498 0.814351 0.981869 0.656471 0.814351 0.314995 0.656471 0.229659 0.314995 0.0121003 0.229659 0.00789095 0.0121003 0.00579433 0.00789095 0.00639679 0.00579433 0.00729256 0.00639679 0.00712732 0.00729256 0.00721318 0.00712732 0.00727269 0.00721318 0.00756261 0.00727269 0.00756326 0.00756261 0.00779165 0.00756326 0.00780584 0.00779165 0.00804108 0.00780584 0.00805023 0.00804108 0.00827382 0.00805023 0.00828278 0.00827382 0.00849763 0.00828278 0.0085053 0.00849763 0.00870838 0.0085053 0.00871514 0.00870838 0.00890453 0.00871514 0.00891035 0.00890453 0.00908379 0.00891035 0.00908876 0.00908379 0.0092443 0.00908876 0.00924847 0.0092443 0.00938466 0.00924847 0.00938811 0.00938466 0.00950417 0.00938811 0.00950697 0.00950417 0.00960282 0.00950697 0.00960508 0.00960282 0.00968125 0.00960508 0.00968306 0.00968125 0.00974048 0.00968306 0.00974195 0.00974048 0.00978169 0.00974195 0.00978292 0.00978169 0.00980593 0.00978292 0.00980701 0.00980593 0.00981392 0.00980701 0.00981496 0.00981496 0.00980701 0.00981804 0.00981023 0.00980701 0.00978292 0.00981023 0.00978656 0.00978292 0.00974195 0.00978656 0.00974631 0.00974195 0.00968306 0.00974631 0.00968844 0.00968306 0.00960508 0.00968844 0.00961178 0.00960508 0.00950697 0.00961178 0.00951529 0.00950697 0.00938811 0.00951529 0.00939833 0.00938811 0.00924847 0.00939833 0.00926084 0.00924847 0.00908876 0.00926084 0.00910351 0.00908876 0.00891035 0.00910351 0.00892767 0.00891035 0.00871514 0.00892767 0.00873521 0.00871514 0.0085053 0.00873521 0.00852821 0.0085053 0.00828278 0.00852821 0.00830912 0.00828278 0.00805023 0.00830912 0.00807871 0.00805023 0.00780584 0.00807871 0.0078431 0.00780584 0.00756326 0.0078431 0.00758482 0.00756326 0.00727269 0.00758482 0.00737612 0.00727269 0.00712732 0.00737612 0.00693942 0.00712732 0.00639679 0.00693942 0.00734235 0.00639679 0.00789095 0.00734235 0.00472417 0.00789095 0.229659 0.00472417 0.0573612 0.229659 0.656471 0.0573612 0.324491 0.656471 0.981869 0.324491 0.618652 0.981869 0.997164 0.618652 0.804416 0.997164 0.995538 0.804416 0.856069 0.995538 0.997164 0.856069 0.804416 0.997164 0.981869 0.804416 0.618652 0.981869 0.656471 0.618652 0.324491 0.656471 0.229659 0.324491 0.0573612 0.229659 0.00789095 0.0573612 0.00472417 0.00789095 0.00639679 0.00472417 0.00734235 0.00639679 0.00712732 0.00734235 0.00693942 0.00712732 0.00727269 0.00693942 0.00737612 0.00727269 0.00756326 0.00737612 0.00758482 0.00756326 0.00780584 0.00758482 0.0078431 0.00780584 0.00805023 0.0078431 0.00807871 0.00805023 0.00828278 0.00807871 0.00830912 0.00828278 0.0085053 0.00830912 0.00852821 0.0085053 0.00871514 0.00852821 0.00873521 0.00871514 0.00891035 0.00873521 0.00892767 0.00891035 0.00908876 0.00892767 0.00910351 0.00908876 0.00924847 0.00910351 0.00926084 0.00924847 0.00938811 0.00926084 0.00939833 0.00938811 0.00950697 0.00939833 0.00951529 0.00950697 0.00960508 0.00951529 0.00961178 0.00960508 0.00968306 0.00961178 0.00968844 0.00968306 0.00974195 0.00968844 0.00974631 0.00974195 0.00978292 0.00974631 0.00978656 0.00978292 0.00980701 0.00978656 0.00981023 0.00980701 0.00981496 0.00981023 0.00981804 0.00981804 0.00981023 0.00982305 0.00981547 0.00981023 0.00978656 0.00981547 0.00979249 0.00978656 0.00974631 0.00979249 0.00975341 0.00974631 0.00968844 0.00975341 0.00969719 0.00968844 0.00961178 0.00969719 0.00962269 0.00961178 0.00951529 0.00962269 0.00952885 0.00951529 0.00939833 0.00952885 0.00941501 0.00939833 0.00926084 0.00941501 0.00928106 0.00926084 0.00910351 0.00928106 0.00912763 0.00910351 0.00892767 0.00912763 0.008956 0.00892767 0.00873521 0.008956 0.00876803 0.00873521 0.00852821 0.00876803 0.00856587 0.00852821 0.00830912 0.00856587 0.0083517 0.00830912 0.00807871 0.0083517 0.00812768 0.00807871 0.0078431 0.00812768 0.00789498 0.0078431 0.00758482 0.00789498 0.00765655 0.00758482 0.00737612 0.00765655 0.00740572 0.00737612 0.00693942 0.00740572 0.00716875 0.00693942 0.00734235 0.00716875 0.00683909 0.00734235 0.00472417 0.00683909 0.0067774 0.00472417 0.0573612 0.0067774 0.00364524 0.0573612 0.324491 0.00364524 0.037127 0.324491 0.618652 0.037127 0.189684 0.618652 0.804416 0.189684 0.321039 0.804416 0.856069 0.321039 0.370093 0.856069 0.804416 0.370093 0.321039 0.804416 0.618652 0.321039 0.189684 0.618652 0.324491 0.189684 0.037127 0.324491 0.0573612 0.037127 0.00364524 0.0573612 0.00472417 0.00364524 0.0067774 0.00472417 0.00734235 0.0067774 0.00683909 0.00734235 0.00693942 0.00683909 0.00716875 0.00693942 0.00737612 0.00716875 0.00740572 0.00737612 0.00758482 0.00740572 0.00765655 0.00758482 0.0078431 0.00765655 0.00789498 0.0078431 0.00807871 0.00789498 0.00812768 0.00807871 0.00830912 0.00812768 0.0083517 0.00830912 0.00852821 0.0083517 0.00856587 0.00852821 0.00873521 0.00856587 0.00876803 0.00873521 0.00892767 0.00876803 0.008956 0.00892767 0.00910351 0.008956 0.00912763 0.00910351 0.00926084 0.00912763 0.00928106 0.00926084 0.00939833 0.00928106 0.00941501 0.00939833 0.00951529 0.00941501 0.00952885 0.00951529 0.00961178 0.00952885 0.00962269 0.00961178 0.00968844 0.00962269 0.00969719 0.00968844 0.00974631 0.00969719 0.00975341 0.00974631 0.00978656 0.00975341 0.00979249 0.00978656 0.00981023 0.00979249 0.00981547 0.00981023 0.00981804 0.00981547 0.00982305 0.00982305 0.00981547 0.00982983 0.00982256 0.00981547 0.00979249 0.00982256 0.00980052 0.00979249 0.00975341 0.00980052 0.00976301 0.00975341 0.00969719 0.00976301 0.00970905 0.00969719 0.00962269 0.00970905 0.00963747 0.00962269 0.00952885 0.00963747 0.00954724 0.00952885 0.00941501 0.00954724 0.00943764 0.00941501 0.00928106 0.00943764 0.00930852 0.00928106 0.00912763 0.00930852 0.00916043 0.00912763 0.008956 0.00916043 0.00899458 0.008956 0.00876803 0.00899458 0.00881276 0.00876803 0.00856587 0.00881276 0.00861714 0.00856587 0.0083517 0.00861714 0.00840999 0.0083517 0.00812768 0.00840999 0.00819353 0.00812768 0.00789498 0.00819353 0.00796944 0.00789498 0.00765655 0.00796944 0.00773998 0.00765655 0.00740572 0.00773998 0.00750299 0.00740572 0.00716875 0.00750299 0.00727088 0.00716875 0.00683909 0.00727088 0.0069961 0.00683909 0.0067774 0.0069961 0.00687346 0.0067774 0.00364524 0.00687346 0.00683129 0.00364524 0.037127 0.00683129 0.00449524 0.037127 0.189684 0.00449524 0.00602057 0.189684 0.321039 0.00602057 0.0101194 0.321039 0.370093 0.0101194 0.0148309 0.370093 0.321039 0.0148309 0.0101194 0.321039 0.189684 0.0101194 0.00602057 0.189684 0.037127 0.00602057 0.00449524 0.037127 0.00364524 0.00449524 0.00683129 0.00364524 0.0067774 0.00683129 0.00687346 0.0067774 0.00683909 0.00687346 0.0069961 0.00683909 0.00716875 0.0069961 0.00727088 0.00716875 0.00740572 0.00727088 0.00750299 0.00740572 0.00765655 0.00750299 0.00773998 0.00765655 0.00789498 0.00773998 0.00796944 0.00789498 0.00812768 0.00796944 0.00819353 0.00812768 0.0083517 0.00819353 0.00840999 0.0083517 0.00856587 0.00840999 0.00861714 0.00856587 0.00876803 0.00861714 0.00881276 0.00876803 0.008956 0.00881276 0.00899458 0.008956 0.00912763 0.00899458 0.00916043 0.00912763 0.00928106 0.00916043 0.00930852 0.00928106 0.00941501 0.00930852 0.00943764 0.00941501 0.00952885 0.00943764 0.00954724 0.00952885 0.00962269 0.00954724 0.00963747 0.00962269 0.00969719 0.00963747 0.00970905 0.00969719 0.00975341 0.00970905 0.00976301 0.00975341 0.00979249 0.00976301 0.00980052 0.00979249 0.00981547 0.00980052 0.00982256 0.00981547 0.00982305 0.00982256 0.00982983 0.00982983 0.00982256 0.00983817 0.00983128 0.00982256 0.00980052 0.00983128 0.00981038 0.00980052 0.00976301 0.00981038 0.00977482 0.00976301 0.00970905 0.00977482 0.00972362 0.00970905 0.00963747 0.00972362 0.00965566 0.00963747 0.00954724 0.00965566 0.00956987 0.00954724 0.00943764 0.00956987 0.00946554 0.00943764 0.00930852 0.00946554 0.00934243 0.00930852 0.00916043 0.00934243 0.00920098 0.00916043 0.00899458 0.00920098 0.00904233 0.00899458 0.00881276 0.00904233 0.00886821 0.00881276 0.00861714 0.00886821 0.00868075 0.00861714 0.00840999 0.00868075 0.0084823 0.00840999 0.00819353 0.0084823 0.00827519 0.00819353 0.00796944 0.00827519 0.00806164 0.00796944 0.00773998 0.00806164 0.00784341 0.00773998 0.00750299 0.00784341 0.00762285 0.00750299 0.00727088 0.00762285 0.0073991 0.00727088 0.0069961 0.0073991 0.00718534 0.0069961 0.00687346 0.00718534 0.00694426 0.00687346 0.00683129 0.00694426 0.00666924 0.00683129 0.00449524 0.00666924 0.0071815 0.00449524 0.00602057 0.0071815 0.00650318 0.00602057 0.0101194 0.00650318 0.00563928 0.0101194 0.0148309 0.00563928 0.00519283 0.0148309 0.0101194 0.00519283 0.00563928 0.0101194 0.00602057 0.00563928 0.00650318 0.00602057 0.00449524 0.00650318 0.0071815 0.00449524 0.00683129 0.0071815 0.00666924 0.00683129 0.00687346 0.00666924 0.00694426 0.00687346 0.0069961 0.00694426 0.00718534 0.0069961 0.00727088 0.00718534 0.0073991 0.00727088 0.00750299 0.0073991 0.00762285 0.00750299 0.00773998 0.00762285 0.00784341 0.00773998 0.00796944 0.00784341 0.00806164 0.00796944 0.00819353 0.00806164 0.00827519 0.00819353 0.00840999 0.00827519 0.0084823 0.00840999 0.00861714 0.0084823 0.00868075 0.00861714 0.00881276 0.00868075 0.00886821 0.00881276 0.00899458 0.00886821 0.00904233 0.00899458 0.00916043 0.00904233 0.00920098 0.00916043 0.00930852 0.00920098 0.00934243 0.00930852 0.00943764 0.00934243 0.00946554 0.00943764 0.00954724 0.00946554 0.00956987 0.00954724 0.00963747 0.00956987 0.00965566 0.00963747 0.00970905 0.00965566 0.00972362 0.00970905 0.00976301 0.00972362 0.00977482 0.00976301 0.00980052 0.00977482 0.00981038 0.00980052 0.00982256 0.00981038 0.00983128 0.00982256 0.00982983 0.00983128 0.00983817 0.00983817 0.00983128 0.0098478 0.00984135 0.00983128 0.00981038 0.00984135 0.00982178 0.00981038 0.00977482 0.00982178 0.00978846 0.00977482 0.00972362 0.00978846 0.00974045 0.00972362 0.00965566 0.00974045 0.00967667 0.00965566 0.00956987 0.00967667 0.00959607 0.00956987 0.00946554 0.00959607 0.00949787 0.00946554 0.00934243 0.00949787 0.00938178 0.00934243 0.00920098 0.00938178 0.00924815 0.00920098 0.00904233 0.00924815 0.00909798 0.00904233 0.00886821 0.00909798 0.0089329 0.00886821 0.00868075 0.0089329 0.00875503 0.00868075 0.0084823 0.00875503 0.00856675 0.0084823 0.00827519 0.00856675 0.00837054 0.00827519 0.00806164 0.00837054 0.00816886 0.00806164 0.00784341 0.00816886 0.00796414 0.00784341 0.00762285 0.00796414 0.00775861 0.00762285 0.0073991 0.00775861 0.00755577 0.0073991 0.00718534 0.00755577 0.00735637 0.00718534 0.00694426 0.00735637 0.00717654 0.00694426 0.00666924 0.00717654 0.00702886 0.00666924 0.0071815 0.00702886 0.0067206 0.0071815 0.00650318 0.0067206 0.00675847 0.00650318 0.00563928 0.00675847 0.00692469 0.00563928 0.00519283 0.00692469 0.00704359 0.00519283 0.00563928 0.00704359 0.00692469 0.00563928 0.00650318 0.00692469 0.00675847 0.00650318 0.0071815 0.00675847 0.0067206 0.0071815 0.00666924 0.0067206 0.00702886 0.00666924 0.00694426 0.00702886 0.00717654 0.00694426 0.00718534 0.00717654 0.00735637 0.00718534 0.0073991 0.00735637 0.00755577 0.0073991 0.00762285 0.00755577 0.00775861 0.00762285 0.00784341 0.00775861 0.00796414 0.00784341 0.00806164 0.00796414 0.00816886 0.00806164 0.00827519 0.00816886 0.00837054 0.00827519 0.0084823 0.00837054 0.00856675 0.0084823 0.00868075 0.00856675 0.00875503 0.00868075 0.00886821 0.00875503 0.0089329 0.00886821 0.00904233 0.0089329 0.00909798 0.00904233 0.00920098 0.00909798 0.00924815 0.00920098 0.00934243 0.00924815 0.00938178 0.00934243 0.00946554 0.00938178 0.00949787 0.00946554 0.00956987 0.00949787 0.00959607 0.00956987 0.00965566 0.00959607 0.00967667 0.00965566 0.00972362 0.00967667 0.00974045 0.00972362 0.00977482 0.00974045 0.00978846 0.00977482 0.00981038 0.00978846 0.00982178 0.00981038 0.00983128 0.00982178 0.00984135 0.00983128 0.00983817 0.00984135 0.0098478 0.0098478 0.00984135 0.00985844 0.00985247 0.00984135 0.00982178 0.00985247 0.00983435 0.00982178 0.00978846 0.00983435 0.00980351 0.00978846 0.00974045 0.00980351 0.00975904 0.00974045 0.00967667 0.00975904 0.00969989 0.00967667 0.00959607 0.00969989 0.00962504 0.00959607 0.00949787 0.00962504 0.00953369 0.00949787 0.00938178 0.00953369 0.00942548 0.00938178 0.00924815 0.00942548 0.00930063 0.00924815 0.00909798 0.00930063 0.00916002 0.00909798 0.0089329 0.00916002 0.00900516 0.0089329 0.00875503 0.00900516 0.00883809 0.00875503 0.00856675 0.00883809 0.00866118 0.00856675 0.00837054 0.00866118 0.00847705 0.00837054 0.00816886 0.00847705 0.00828836 0.00816886 0.00796414 0.00828836 0.00809785 0.00796414 0.00775861 0.00809785 0.00790844 0.00775861 0.00755577 0.00790844 0.00772319 0.00755577 0.00735637 0.00772319 0.00754675 0.00735637 0.00717654 0.00754675 0.00738163 0.00717654 0.00702886 0.00738163 0.00723259 0.00702886 0.0067206 0.00723259 0.00715964 0.0067206 0.00675847 0.00715964 0.00703399 0.00675847 0.00692469 0.00703399 0.0069195 0.00692469 0.00704359 0.0069195 0.00686575 0.00704359 0.00692469 0.00686575 0.0069195 0.00692469 0.00675847 0.0069195 0.00703399 0.00675847 0.0067206 0.00703399 0.00715964 0.0067206 0.00702886 0.00715964 0.00723259 0.00702886 0.00717654 0.00723259 0.00738163 0.00717654 0.00735637 0.00738163 0.00754675 0.00735637 0.00755577 0.00754675 0.00772319 0.00755577 0.00775861 0.00772319 0.00790844 0.00775861 0.00796414 0.00790844 0.00809785 0.00796414 0.00816886 0.00809785 0.00828836 0.00816886 0.00837054 0.00828836 0.00847705 0.00837054 0.00856675 0.00847705 0.00866118 0.00856675 0.00875503 0.00866118 0.00883809 0.00875503 0.0089329 0.00883809 0.00900516 0.0089329 0.00909798 0.00900516 0.00916002 0.00909798 0.00924815 0.00916002 0.00930063 0.00924815 0.00938178 0.00930063 0.00942548 0.00938178 0.00949787 0.00942548 0.00953369 0.00949787 0.00959607 0.00953369 0.00962504 0.00959607 0.00967667 0.00962504 0.00969989 0.00967667 0.00974045 0.00969989 0.00975904 0.00974045 0.00978846 0.00975904 0.00980351 0.00978846 0.00982178 0.00980351 0.00983435 0.00982178 0.00984135 0.00983435 0.00985247 0.00984135 0.0098478 0.00985247 0.00985844 0.00985844 0.00985247 0.00986978 0.00986432 0.00985247 0.00983435 0.00986432 0.00984776 0.00983435 0.00980351 0.00984776 0.00981954 0.00980351 0.00975904 0.00981954 0.00977883 0.00975904 0.00969989 0.00977883 0.00972464 0.00969989 0.00962504 0.00972464 0.00965596 0.00962504 0.00953369 0.00965596 0.009572 0.00953369 0.00942548 0.009572 0.00947231 0.00942548 0.00930063 0.00947231 0.009357 0.00930063 0.00916002 0.009357 0.00922682 0.00916002 0.00900516 0.00922682 0.00908312 0.00900516 0.00883809 0.00908312 0.00892782 0.00883809 0.00866118 0.00892782 0.00876327 0.00866118 0.00847705 0.00876327 0.00859207 0.00847705 0.00828836 0.00859207 0.00841705 0.00828836 0.00809785 0.00841705 0.00824113 0.00809785 0.00790844 0.00824113 0.00806742 0.00790844 0.00772319 0.00806742 0.00789938 0.00772319 0.00754675 0.00789938 0.00774069 0.00754675 0.00738163 0.00774069 0.00759638 0.00738163 0.00723259 0.00759638 0.00747149 0.00723259 0.00715964 0.00747149 0.00735639 0.00715964 0.00703399 0.00735639 0.00728939 0.00703399 0.0069195 0.00728939 0.00725803 0.0069195 0.00686575 0.00725803 0.00725154 0.00686575 0.0069195 0.00725154 0.00725803 0.0069195 0.00703399 0.00725803 0.00728939 0.00703399 0.00715964 0.00728939 0.00735639 0.00715964 0.00723259 0.00735639 0.00747149 0.00723259 0.00738163 0.00747149 0.00759638 0.00738163 0.00754675 0.00759638 0.00774069 0.00754675 0.00772319 0.00774069 0.00789938 0.00772319 0.00790844 0.00789938 0.00806742 0.00790844 0.00809785 0.00806742 0.00824113 0.00809785 0.00828836 0.00824113 0.00841705 0.00828836 0.00847705 0.00841705 0.00859207 0.00847705 0.00866118 0.00859207 0.00876327 0.00866118 0.00883809 0.00876327 0.00892782 0.00883809 0.00900516 0.00892782 0.00908312 0.00900516 0.00916002 0.00908312 0.00922682 0.00916002 0.00930063 0.00922682 0.009357 0.00930063 0.00942548 0.009357 0.00947231 0.00942548 0.00953369 0.00947231 0.009572 0.00953369 0.00962504 0.009572 0.00965596 0.00962504 0.00969989 0.00965596 0.00972464 0.00969989 0.00975904 0.00972464 0.00977883 0.00975904 0.00980351 0.00977883 0.00981954 0.00980351 0.00983435 0.00981954 0.00984776 0.00983435 0.00985247 0.00984776 0.00986432 0.00985247 0.00985844 0.00986432 0.00986978 0.00986978 0.00986432 0.00988152 0.00987659 0.00986432 0.00984776 0.00987659 0.00986163 0.00984776 0.00981954 0.00986163 0.00983612 0.00981954 0.00977883 0.00983612 0.00979931 0.00977883 0.00972464 0.00979931 0.00975026 0.00972464 0.00965596 0.00975026 0.009688 0.00965596 0.009572 0.009688 0.00961175 0.009572 0.00947231 0.00961175 0.00952101 0.00947231 0.009357 0.00952101 0.0094158 0.009357 0.00922682 0.0094158 0.00929667 0.00922682 0.00908312 0.00929667 0.00916484 0.00908312 0.00892782 0.00916484 0.00902205 0.00892782 0.00876327 0.00902205 0.00887054 0.00876327 0.00859207 0.00887054 0.00871289 0.00859207 0.00841705 0.00871289 0.00855192 0.00841705 0.00824113 0.00855192 0.00839061 0.00824113 0.00806742 0.00839061 0.00823215 0.00806742 0.00789938 0.00823215 0.00807986 0.00789938 0.00774069 0.00807986 0.00793738 0.00774069 0.00759638 0.00793738 0.00780828 0.00759638 0.00747149 0.00780828 0.00769619 0.00747149 0.00735639 0.00769619 0.00760825 0.00735639 0.00728939 0.00760825 0.00753852 0.00728939 0.00725803 0.00753852 0.00749315 0.00725803 0.00725154 0.00749315 0.0074768 0.00725154 0.00725803 0.0074768 0.00749315 0.00725803 0.00728939 0.00749315 0.00753852 0.00728939 0.00735639 0.00753852 0.00760825 0.00735639 0.00747149 0.00760825 0.00769619 0.00747149 0.00759638 0.00769619 0.00780828 0.00759638 0.00774069 0.00780828 0.00793738 0.00774069 0.00789938 0.00793738 0.00807986 0.00789938 0.00806742 0.00807986 0.00823215 0.00806742 0.00824113 0.00823215 0.00839061 0.00824113 0.00841705 0.00839061 0.00855192 0.00841705 0.00859207 0.00855192 0.00871289 0.00859207 0.00876327 0.00871289 0.00887054 0.00876327 0.00892782 0.00887054 0.00902205 0.00892782 0.00908312 0.00902205 0.00916484 0.00908312 0.00922682 0.00916484 0.00929667 0.00922682 0.009357 0.00929667 0.0094158 0.009357 0.00947231 0.0094158 0.00952101 0.00947231 0.009572 0.00952101 0.00961175 0.009572 0.00965596 0.00961175 0.009688 0.00965596 0.00972464 0.009688 0.00975026 0.00972464 0.00977883 0.00975026 0.00979931 0.00977883 0.00981954 0.00979931 0.00983612 0.00981954 0.00984776 0.00983612 0.00986163 0.00984776 0.00986432 0.00986163 0.00987659 0.00986432 0.00986978 0.00987659 0.00988152 0.00988152 0.00987659 0.00989338 0.00988898 0.00987659 0.00986163 0.00988898 0.00987562 0.00986163 0.00983612 0.00987562 0.00985284 0.00983612 0.00979931 0.00985284 0.00981995 0.00979931 0.00975026 0.00981995 0.00977608 0.00975026 0.009688 0.00977608 0.00972034 0.009688 0.00961175 0.00972034 0.00965194 0.00961175 0.00952101 0.00965194 0.00957038 0.00952101 0.0094158 0.00957038 0.00947553 0.0094158 0.00929667 0.00947553 0.00936785 0.00929667 0.00916484 0.00936785 0.00924833 0.00916484 0.00902205 0.00924833 0.00911854 0.00902205 0.00887054 0