# vtk DataFile Version 3.0
#This file was generated by the deal.II library on 2023/1/15 at 18:58:46
ASCII
DATASET UNSTRUCTURED_GRID

POINTS 5000 double
0 0 0
0.04 0 0
0 0.04 0
0.04 0.04 0
0.04 0 0
0.08 0 0
0.04 0.04 0
0.08 0.04 0
0.08 0 0
0.12 0 0
0.08 0.04 0
0.12 0.04 0
0.12 0 0
0.16 0 0
0.12 0.04 0
0.16 0.04 0
0.16 0 0
0.2 0 0
0.16 0.04 0
0.2 0.04 0
0.2 0 0
0.24 0 0
0.2 0.04 0
0.24 0.04 0
0.24 0 0
0.28 0 0
0.24 0.04 0
0.28 0.04 0
0.28 0 0
0.32 0 0
0.28 0.04 0
0.32 0.04 0
0.32 0 0
0.36 0 0
0.32 0.04 0
0.36 0.04 0
0.36 0 0
0.4 0 0
0.36 0.04 0
0.4 0.04 0
0.4 0 0
0.44 0 0
0.4 0.04 0
0.44 0.04 0
0.44 0 0
0.48 0 0
0.44 0.04 0
0.48 0.04 0
0.48 0 0
0.52 0 0
0.48 0.04 0
0.52 0.04 0
0.52 0 0
0.56 0 0
0.52 0.04 0
0.56 0.04 0
0.56 0 0
0.6 0 0
0.56 0.04 0
0.6 0.04 0
0.6 0 0
0.64 0 0
0.6 0.04 0
0.64 0.04 0
0.64 0 0
0.68 0 0
0.64 0.04 0
0.68 0.04 0
0.68 0 0
0.72 0 0
0.68 0.04 0
0.72 0.04 0
0.72 0 0
0.76 0 0
0.72 0.04 0
0.76 0.04 0
0.76 0 0
0.8 0 0
0.76 0.04 0
0.8 0.04 0
0.8 0 0
0.84 0 0
0.8 0.04 0
0.84 0.04 0
0.84 0 0
0.88 0 0
0.84 0.04 0
0.88 0.04 0
0.88 0 0
0.92 0 0
0.88 0.04 0
0.92 0.04 0
0.92 0 0
0.96 0 0
0.92 0.04 0
0.96 0.04 0
0.96 0 0
1 0 0
0.96 0.04 0
1 0.04 0
1 0 0
1.04 0 0
1 0.04 0
1.04 0.04 0
1.04 0 0
1.08 0 0
1.04 0.04 0
1.08 0.04 0
1.08 0 0
1.12 0 0
1.08 0.04 0
1.12 0.04 0
1.12 0 0
1.16 0 0
1.12 0.04 0
1.16 0.04 0
1.16 0 0
1.2 0 0
1.16 0.04 0
1.2 0.04 0
1.2 0 0
1.24 0 0
1.2 0.04 0
1.24 0.04 0
1.24 0 0
1.28 0 0
1.24 0.04 0
1.28 0.04 0
1.28 0 0
1.32 0 0
1.28 0.04 0
1.32 0.04 0
1.32 0 0
1.36 0 0
1.32 0.04 0
1.36 0.04 0
1.36 0 0
1.4 0 0
1.36 0.04 0
1.4 0.04 0
1.4 0 0
1.44 0 0
1.4 0.04 0
1.44 0.04 0
1.44 0 0
1.48 0 0
1.44 0.04 0
1.48 0.04 0
1.48 0 0
1.52 0 0
1.48 0.04 0
1.52 0.04 0
1.52 0 0
1.56 0 0
1.52 0.04 0
1.56 0.04 0
1.56 0 0
1.6 0 0
1.56 0.04 0
1.6 0.04 0
1.6 0 0
1.64 0 0
1.6 0.04 0
1.64 0.04 0
1.64 0 0
1.68 0 0
1.64 0.04 0
1.68 0.04 0
1.68 0 0
1.72 0 0
1.68 0.04 0
1.72 0.04 0
1.72 0 0
1.76 0 0
1.72 0.04 0
1.76 0.04 0
1.76 0 0
1.8 0 0
1.76 0.04 0
1.8 0.04 0
1.8 0 0
1.84 0 0
1.8 0.04 0
1.84 0.04 0
1.84 0 0
1.88 0 0
1.84 0.04 0
1.88 0.04 0
1.88 0 0
1.92 0 0
1.88 0.04 0
1.92 0.04 0
1.92 0 0
1.96 0 0
1.92 0.04 0
1.96 0.04 0
1.96 0 0
2 0 0
1.96 0.04 0
2 0.04 0
0 0.04 0
0.04 0.04 0
0 0.08 0
0.04 0.08 0
0.04 0.04 0
0.08 0.04 0
0.04 0.08 0
0.08 0.08 0
0.08 0.04 0
0.12 0.04 0
0.08 0.08 0
0.12 0.08 0
0.12 0.04 0
0.16 0.04 0
0.12 0.08 0
0.16 0.08 0
0.16 0.04 0
0.2 0.04 0
0.16 0.08 0
0.2 0.08 0
0.2 0.04 0
0.24 0.04 0
0.2 0.08 0
0.24 0.08 0
0.24 0.04 0
0.28 0.04 0
0.24 0.08 0
0.28 0.08 0
0.28 0.04 0
0.32 0.04 0
0.28 0.08 0
0.32 0.08 0
0.32 0.04 0
0.36 0.04 0
0.32 0.08 0
0.36 0.08 0
0.36 0.04 0
0.4 0.04 0
0.36 0.08 0
0.4 0.08 0
0.4 0.04 0
0.44 0.04 0
0.4 0.08 0
0.44 0.08 0
0.44 0.04 0
0.48 0.04 0
0.44 0.08 0
0.48 0.08 0
0.48 0.04 0
0.52 0.04 0
0.48 0.08 0
0.52 0.08 0
0.52 0.04 0
0.56 0.04 0
0.52 0.08 0
0.56 0.08 0
0.56 0.04 0
0.6 0.04 0
0.56 0.08 0
0.6 0.08 0
0.6 0.04 0
0.64 0.04 0
0.6 0.08 0
0.64 0.08 0
0.64 0.04 0
0.68 0.04 0
0.64 0.08 0
0.68 0.08 0
0.68 0.04 0
0.72 0.04 0
0.68 0.08 0
0.72 0.08 0
0.72 0.04 0
0.76 0.04 0
0.72 0.08 0
0.76 0.08 0
0.76 0.04 0
0.8 0.04 0
0.76 0.08 0
0.8 0.08 0
0.8 0.04 0
0.84 0.04 0
0.8 0.08 0
0.84 0.08 0
0.84 0.04 0
0.88 0.04 0
0.84 0.08 0
0.88 0.08 0
0.88 0.04 0
0.92 0.04 0
0.88 0.08 0
0.92 0.08 0
0.92 0.04 0
0.96 0.04 0
0.92 0.08 0
0.96 0.08 0
0.96 0.04 0
1 0.04 0
0.96 0.08 0
1 0.08 0
1 0.04 0
1.04 0.04 0
1 0.08 0
1.04 0.08 0
1.04 0.04 0
1.08 0.04 0
1.04 0.08 0
1.08 0.08 0
1.08 0.04 0
1.12 0.04 0
1.08 0.08 0
1.12 0.08 0
1.12 0.04 0
1.16 0.04 0
1.12 0.08 0
1.16 0.08 0
1.16 0.04 0
1.2 0.04 0
1.16 0.08 0
1.2 0.08 0
1.2 0.04 0
1.24 0.04 0
1.2 0.08 0
1.24 0.08 0
1.24 0.04 0
1.28 0.04 0
1.24 0.08 0
1.28 0.08 0
1.28 0.04 0
1.32 0.04 0
1.28 0.08 0
1.32 0.08 0
1.32 0.04 0
1.36 0.04 0
1.32 0.08 0
1.36 0.08 0
1.36 0.04 0
1.4 0.04 0
1.36 0.08 0
1.4 0.08 0
1.4 0.04 0
1.44 0.04 0
1.4 0.08 0
1.44 0.08 0
1.44 0.04 0
1.48 0.04 0
1.44 0.08 0
1.48 0.08 0
1.48 0.04 0
1.52 0.04 0
1.48 0.08 0
1.52 0.08 0
1.52 0.04 0
1.56 0.04 0
1.52 0.08 0
1.56 0.08 0
1.56 0.04 0
1.6 0.04 0
1.56 0.08 0
1.6 0.08 0
1.6 0.04 0
1.64 0.04 0
1.6 0.08 0
1.64 0.08 0
1.64 0.04 0
1.68 0.04 0
1.64 0.08 0
1.68 0.08 0
1.68 0.04 0
1.72 0.04 0
1.68 0.08 0
1.72 0.08 0
1.72 0.04 0
1.76 0.04 0
1.72 0.08 0
1.76 0.08 0
1.76 0.04 0
1.8 0.04 0
1.76 0.08 0
1.8 0.08 0
1.8 0.04 0
1.84 0.04 0
1.8 0.08 0
1.84 0.08 0
1.84 0.04 0
1.88 0.04 0
1.84 0.08 0
1.88 0.08 0
1.88 0.04 0
1.92 0.04 0
1.88 0.08 0
1.92 0.08 0
1.92 0.04 0
1.96 0.04 0
1.92 0.08 0
1.96 0.08 0
1.96 0.04 0
2 0.04 0
1.96 0.08 0
2 0.08 0
0 0.08 0
0.04 0.08 0
0 0.12 0
0.04 0.12 0
0.04 0.08 0
0.08 0.08 0
0.04 0.12 0
0.08 0.12 0
0.08 0.08 0
0.12 0.08 0
0.08 0.12 0
0.12 0.12 0
0.12 0.08 0
0.16 0.08 0
0.12 0.12 0
0.16 0.12 0
0.16 0.08 0
0.2 0.08 0
0.16 0.12 0
0.2 0.12 0
0.2 0.08 0
0.24 0.08 0
0.2 0.12 0
0.24 0.12 0
0.24 0.08 0
0.28 0.08 0
0.24 0.12 0
0.28 0.12 0
0.28 0.08 0
0.32 0.08 0
0.28 0.12 0
0.32 0.12 0
0.32 0.08 0
0.36 0.08 0
0.32 0.12 0
0.36 0.12 0
0.36 0.08 0
0.4 0.08 0
0.36 0.12 0
0.4 0.12 0
0.4 0.08 0
0.44 0.08 0
0.4 0.12 0
0.44 0.12 0
0.44 0.08 0
0.48 0.08 0
0.44 0.12 0
0.48 0.12 0
0.48 0.08 0
0.52 0.08 0
0.48 0.12 0
0.52 0.12 0
0.52 0.08 0
0.56 0.08 0
0.52 0.12 0
0.56 0.12 0
0.56 0.08 0
0.6 0.08 0
0.56 0.12 0
0.6 0.12 0
0.6 0.08 0
0.64 0.08 0
0.6 0.12 0
0.64 0.12 0
0.64 0.08 0
0.68 0.08 0
0.64 0.12 0
0.68 0.12 0
0.68 0.08 0
0.72 0.08 0
0.68 0.12 0
0.72 0.12 0
0.72 0.08 0
0.76 0.08 0
0.72 0.12 0
0.76 0.12 0
0.76 0.08 0
0.8 0.08 0
0.76 0.12 0
0.8 0.12 0
0.8 0.08 0
0.84 0.08 0
0.8 0.12 0
0.84 0.12 0
0.84 0.08 0
0.88 0.08 0
0.84 0.12 0
0.88 0.12 0
0.88 0.08 0
0.92 0.08 0
0.88 0.12 0
0.92 0.12 0
0.92 0.08 0
0.96 0.08 0
0.92 0.12 0
0.96 0.12 0
0.96 0.08 0
1 0.08 0
0.96 0.12 0
1 0.12 0
1 0.08 0
1.04 0.08 0
1 0.12 0
1.04 0.12 0
1.04 0.08 0
1.08 0.08 0
1.04 0.12 0
1.08 0.12 0
1.08 0.08 0
1.12 0.08 0
1.08 0.12 0
1.12 0.12 0
1.12 0.08 0
1.16 0.08 0
1.12 0.12 0
1.16 0.12 0
1.16 0.08 0
1.2 0.08 0
1.16 0.12 0
1.2 0.12 0
1.2 0.08 0
1.24 0.08 0
1.2 0.12 0
1.24 0.12 0
1.24 0.08 0
1.28 0.08 0
1.24 0.12 0
1.28 0.12 0
1.28 0.08 0
1.32 0.08 0
1.28 0.12 0
1.32 0.12 0
1.32 0.08 0
1.36 0.08 0
1.32 0.12 0
1.36 0.12 0
1.36 0.08 0
1.4 0.08 0
1.36 0.12 0
1.4 0.12 0
1.4 0.08 0
1.44 0.08 0
1.4 0.12 0
1.44 0.12 0
1.44 0.08 0
1.48 0.08 0
1.44 0.12 0
1.48 0.12 0
1.48 0.08 0
1.52 0.08 0
1.48 0.12 0
1.52 0.12 0
1.52 0.08 0
1.56 0.08 0
1.52 0.12 0
1.56 0.12 0
1.56 0.08 0
1.6 0.08 0
1.56 0.12 0
1.6 0.12 0
1.6 0.08 0
1.64 0.08 0
1.6 0.12 0
1.64 0.12 0
1.64 0.08 0
1.68 0.08 0
1.64 0.12 0
1.68 0.12 0
1.68 0.08 0
1.72 0.08 0
1.68 0.12 0
1.72 0.12 0
1.72 0.08 0
1.76 0.08 0
1.72 0.12 0
1.76 0.12 0
1.76 0.08 0
1.8 0.08 0
1.76 0.12 0
1.8 0.12 0
1.8 0.08 0
1.84 0.08 0
1.8 0.12 0
1.84 0.12 0
1.84 0.08 0
1.88 0.08 0
1.84 0.12 0
1.88 0.12 0
1.88 0.08 0
1.92 0.08 0
1.88 0.12 0
1.92 0.12 0
1.92 0.08 0
1.96 0.08 0
1.92 0.12 0
1.96 0.12 0
1.96 0.08 0
2 0.08 0
1.96 0.12 0
2 0.12 0
0 0.12 0
0.04 0.12 0
0 0.16 0
0.04 0.16 0
0.04 0.12 0
0.08 0.12 0
0.04 0.16 0
0.08 0.16 0
0.08 0.12 0
0.12 0.12 0
0.08 0.16 0
0.12 0.16 0
0.12 0.12 0
0.16 0.12 0
0.12 0.16 0
0.16 0.16 0
0.16 0.12 0
0.2 0.12 0
0.16 0.16 0
0.2 0.16 0
0.2 0.12 0
0.24 0.12 0
0.2 0.16 0
0.24 0.16 0
0.24 0.12 0
0.28 0.12 0
0.24 0.16 0
0.28 0.16 0
0.28 0.12 0
0.32 0.12 0
0.28 0.16 0
0.32 0.16 0
0.32 0.12 0
0.36 0.12 0
0.32 0.16 0
0.36 0.16 0
0.36 0.12 0
0.4 0.12 0
0.36 0.16 0
0.4 0.16 0
0.4 0.12 0
0.44 0.12 0
0.4 0.16 0
0.44 0.16 0
0.44 0.12 0
0.48 0.12 0
0.44 0.16 0
0.48 0.16 0
0.48 0.12 0
0.52 0.12 0
0.48 0.16 0
0.52 0.16 0
0.52 0.12 0
0.56 0.12 0
0.52 0.16 0
0.56 0.16 0
0.56 0.12 0
0.6 0.12 0
0.56 0.16 0
0.6 0.16 0
0.6 0.12 0
0.64 0.12 0
0.6 0.16 0
0.64 0.16 0
0.64 0.12 0
0.68 0.12 0
0.64 0.16 0
0.68 0.16 0
0.68 0.12 0
0.72 0.12 0
0.68 0.16 0
0.72 0.16 0
0.72 0.12 0
0.76 0.12 0
0.72 0.16 0
0.76 0.16 0
0.76 0.12 0
0.8 0.12 0
0.76 0.16 0
0.8 0.16 0
0.8 0.12 0
0.84 0.12 0
0.8 0.16 0
0.84 0.16 0
0.84 0.12 0
0.88 0.12 0
0.84 0.16 0
0.88 0.16 0
0.88 0.12 0
0.92 0.12 0
0.88 0.16 0
0.92 0.16 0
0.92 0.12 0
0.96 0.12 0
0.92 0.16 0
0.96 0.16 0
0.96 0.12 0
1 0.12 0
0.96 0.16 0
1 0.16 0
1 0.12 0
1.04 0.12 0
1 0.16 0
1.04 0.16 0
1.04 0.12 0
1.08 0.12 0
1.04 0.16 0
1.08 0.16 0
1.08 0.12 0
1.12 0.12 0
1.08 0.16 0
1.12 0.16 0
1.12 0.12 0
1.16 0.12 0
1.12 0.16 0
1.16 0.16 0
1.16 0.12 0
1.2 0.12 0
1.16 0.16 0
1.2 0.16 0
1.2 0.12 0
1.24 0.12 0
1.2 0.16 0
1.24 0.16 0
1.24 0.12 0
1.28 0.12 0
1.24 0.16 0
1.28 0.16 0
1.28 0.12 0
1.32 0.12 0
1.28 0.16 0
1.32 0.16 0
1.32 0.12 0
1.36 0.12 0
1.32 0.16 0
1.36 0.16 0
1.36 0.12 0
1.4 0.12 0
1.36 0.16 0
1.4 0.16 0
1.4 0.12 0
1.44 0.12 0
1.4 0.16 0
1.44 0.16 0
1.44 0.12 0
1.48 0.12 0
1.44 0.16 0
1.48 0.16 0
1.48 0.12 0
1.52 0.12 0
1.48 0.16 0
1.52 0.16 0
1.52 0.12 0
1.56 0.12 0
1.52 0.16 0
1.56 0.16 0
1.56 0.12 0
1.6 0.12 0
1.56 0.16 0
1.6 0.16 0
1.6 0.12 0
1.64 0.12 0
1.6 0.16 0
1.64 0.16 0
1.64 0.12 0
1.68 0.12 0
1.64 0.16 0
1.68 0.16 0
1.68 0.12 0
1.72 0.12 0
1.68 0.16 0
1.72 0.16 0
1.72 0.12 0
1.76 0.12 0
1.72 0.16 0
1.76 0.16 0
1.76 0.12 0
1.8 0.12 0
1.76 0.16 0
1.8 0.16 0
1.8 0.12 0
1.84 0.12 0
1.8 0.16 0
1.84 0.16 0
1.84 0.12 0
1.88 0.12 0
1.84 0.16 0
1.88 0.16 0
1.88 0.12 0
1.92 0.12 0
1.88 0.16 0
1.92 0.16 0
1.92 0.12 0
1.96 0.12 0
1.92 0.16 0
1.96 0.16 0
1.96 0.12 0
2 0.12 0
1.96 0.16 0
2 0.16 0
0 0.16 0
0.04 0.16 0
0 0.2 0
0.04 0.2 0
0.04 0.16 0
0.08 0.16 0
0.04 0.2 0
0.08 0.2 0
0.08 0.16 0
0.12 0.16 0
0.08 0.2 0
0.12 0.2 0
0.12 0.16 0
0.16 0.16 0
0.12 0.2 0
0.16 0.2 0
0.16 0.16 0
0.2 0.16 0
0.16 0.2 0
0.2 0.2 0
0.2 0.16 0
0.24 0.16 0
0.2 0.2 0
0.24 0.2 0
0.24 0.16 0
0.28 0.16 0
0.24 0.2 0
0.28 0.2 0
0.28 0.16 0
0.32 0.16 0
0.28 0.2 0
0.32 0.2 0
0.32 0.16 0
0.36 0.16 0
0.32 0.2 0
0.36 0.2 0
0.36 0.16 0
0.4 0.16 0
0.36 0.2 0
0.4 0.2 0
0.4 0.16 0
0.44 0.16 0
0.4 0.2 0
0.44 0.2 0
0.44 0.16 0
0.48 0.16 0
0.44 0.2 0
0.48 0.2 0
0.48 0.16 0
0.52 0.16 0
0.48 0.2 0
0.52 0.2 0
0.52 0.16 0
0.56 0.16 0
0.52 0.2 0
0.56 0.2 0
0.56 0.16 0
0.6 0.16 0
0.56 0.2 0
0.6 0.2 0
0.6 0.16 0
0.64 0.16 0
0.6 0.2 0
0.64 0.2 0
0.64 0.16 0
0.68 0.16 0
0.64 0.2 0
0.68 0.2 0
[...]
POINT_DATA 5000
SCALARS c1 double 1
LOOKUP_TABLE default
0.00697177 0.0069693 0.00697287 0.00697041 0.0069693 0.0069619 0.00697041 0.00696302 0.0069619 0.0069496 0.00696302 0.00695075 0.0069496 0.00693245 0.00695075 0.00693365 0.00693245 0.00691052 0.00693365 0.00691178 0.00691052 0.00688389 0.00691178 0.00688522 0.00688389 0.00685266 0.00688522 0.00685408 0.00685266 0.00681688 0.00685408 0.00681841 0.00681688 0.00677684 0.00681841 0.00677845 0.00677684 0.00673175 0.00677845 0.00673366 0.00673175 0.00668517 0.00673366 0.00668659 0.00668517 0.00662345 0.00668659 0.00662753 0.00662345 0.00660052 0.00662753 0.00659491 0.00660052 0.00640621 0.00659491 0.0064387 0.00640621 0.00687773 0.0064387 0.00675317 0.00687773 0.00494959 0.00675317 0.00532404 0.00494959 0.0220155 0.00532404 0.0138063 0.0220155 0.37008 0.0138063 0.332468 0.37008 0.823723 0.332468 0.785463 0.823723 0.994992 0.785463 0.995272 0.994992 0.995475 0.995272 0.995225 0.995475 0.996777 0.995225 0.996275 0.996777 0.997708 0.996275 0.99675 0.997708 0.998044 0.99675 0.99711 0.998044 0.998152 0.99711 0.997204 0.998152 0.998044 0.997204 0.99711 0.998044 0.997708 0.99711 0.99675 0.997708 0.996777 0.99675 0.996275 0.996777 0.995475 0.996275 0.995225 0.995475 0.994992 0.995225 0.995272 0.994992 0.823723 0.995272 0.785463 0.823723 0.37008 0.785463 0.332468 0.37008 0.0220155 0.332468 0.0138063 0.0220155 0.00494959 0.0138063 0.00532404 0.00494959 0.00687773 0.00532404 0.00675317 0.00687773 0.00640621 0.00675317 0.0064387 0.00640621 0.00660052 0.0064387 0.00659491 0.00660052 0.00662345 0.00659491 0.00662753 0.00662345 0.00668517 0.00662753 0.00668659 0.00668517 0.00673175 0.00668659 0.00673366 0.00673175 0.00677684 0.00673366 0.00677845 0.00677684 0.00681688 0.00677845 0.00681841 0.00681688 0.00685266 0.00681841 0.00685408 0.00685266 0.00688389 0.00685408 0.00688522 0.00688389 0.00691052 0.00688522 0.00691178 0.00691052 0.00693245 0.00691178 0.00693365 0.00693245 0.0069496 0.00693365 0.00695075 0.0069496 0.0069619 0.00695075 0.00696302 0.0069619 0.0069693 0.00696302 0.00697041 0.0069693 0.00697177 0.00697041 0.00697287 0.00697287 0.00697041 0.00697616 0.00697371 0.00697041 0.00696302 0.00697371 0.00696638 0.00696302 0.00695075 0.00696638 0.0069542 0.00695075 0.00693365 0.0069542 0.00693723 0.00693365 0.00691178 0.00693723 0.00691553 0.00691178 0.00688522 0.00691553 0.0068892 0.00688522 0.00685408 0.0068892 0.00685831 0.00685408 0.00681841 0.00685831 0.00682297 0.00681841 0.00677845 0.00682297 0.00678329 0.00677845 0.00673366 0.00678329 0.00673922 0.00673366 0.00668659 0.00673922 0.00669139 0.00668659 0.00662753 0.00669139 0.0066376 0.00662753 0.00659491 0.0066376 0.00658666 0.00659491 0.0064387 0.00658666 0.00650407 0.0064387 0.00675317 0.00650407 0.00652461 0.00675317 0.00532404 0.00652461 0.00612205 0.00532404 0.0138063 0.00612205 0.00720767 0.0138063 0.332468 0.00720767 0.226907 0.332468 0.785463 0.226907 0.654105 0.785463 0.995272 0.654105 0.989388 0.995272 0.995225 0.989388 0.995754 0.995225 0.996275 0.995754 0.995062 0.996275 0.99675 0.995062 0.996119 0.99675 0.99711 0.996119 0.996317 0.99711 0.997204 0.996317 0.99645 0.997204 0.99711 0.99645 0.996317 0.99711 0.99675 0.996317 0.996119 0.99675 0.996275 0.996119 0.995062 0.996275 0.995225 0.995062 0.995754 0.995225 0.995272 0.995754 0.989388 0.995272 0.785463 0.989388 0.654105 0.785463 0.332468 0.654105 0.226907 0.332468 0.0138063 0.226907 0.00720767 0.0138063 0.00532404 0.00720767 0.00612205 0.00532404 0.00675317 0.00612205 0.00652461 0.00675317 0.0064387 0.00652461 0.00650407 0.0064387 0.00659491 0.00650407 0.00658666 0.00659491 0.00662753 0.00658666 0.0066376 0.00662753 0.00668659 0.0066376 0.00669139 0.00668659 0.00673366 0.00669139 0.00673922 0.00673366 0.00677845 0.00673922 0.00678329 0.00677845 0.00681841 0.00678329 0.00682297 0.00681841 0.00685408 0.00682297 0.00685831 0.00685408 0.00688522 0.00685831 0.0068892 0.00688522 0.00691178 0.0068892 0.00691553 0.00691178 0.00693365 0.00691553 0.00693723 0.00693365 0.00695075 0.00693723 0.0069542 0.00695075 0.00696302 0.0069542 0.00696638 0.00696302 0.00697041 0.00696638 0.00697371 0.00697041 0.00697287 0.00697371 0.00697616 0.00697616 0.00697371 0.00698157 0.00697916 0.00697371 0.00696638 0.00697916 0.00697192 0.00696638 0.0069542 0.00697192 0.0069599 0.0069542 0.00693723 0.0069599 0.00694314 0.00693723 0.00691553 0.00694314 0.00692173 0.00691553 0.0068892 0.00692173 0.00689575 0.0068892 0.00685831 0.00689575 0.00686529 0.00685831 0.00682297 0.00686529 0.00683047 0.00682297 0.00678329 0.00683047 0.00679133 0.00678329 0.00673922 0.00679133 0.0067482 0.00673922 0.00669139 0.0067482 0.00670014 0.00669139 0.0066376 0.00670014 0.00665118 0.0066376 0.00658666 0.00665118 0.00658556 0.00658666 0.00650407 0.00658556 0.00656495 0.00650407 0.00652461 0.00656495 0.0063486 0.00652461 0.00612205 0.0063486 0.00688703 0.00612205 0.00720767 0.00688703 0.00468861 0.00720767 0.226907 0.00468861 0.086508 0.226907 0.654105 0.086508 0.431793 0.654105 0.989388 0.431793 0.818224 0.989388 0.995754 0.818224 0.995525 0.995754 0.995062 0.995525 0.995632 0.995062 0.996119 0.995632 0.994989 0.996119 0.996317 0.994989 0.995183 0.996317 0.99645 0.995183 0.995189 0.99645 0.996317 0.995189 0.995183 0.996317 0.996119 0.995183 0.994989 0.996119 0.995062 0.994989 0.995632 0.995062 0.995754 0.995632 0.995525 0.995754 0.989388 0.995525 0.818224 0.989388 0.654105 0.818224 0.431793 0.654105 0.226907 0.431793 0.086508 0.226907 0.00720767 0.086508 0.00468861 0.00720767 0.00612205 0.00468861 0.00688703 0.00612205 0.00652461 0.00688703 0.0063486 0.00652461 0.00650407 0.0063486 0.00656495 0.00650407 0.00658666 0.00656495 0.00658556 0.00658666 0.0066376 0.00658556 0.00665118 0.0066376 0.00669139 0.00665118 0.00670014 0.00669139 0.00673922 0.00670014 0.0067482 0.00673922 0.00678329 0.0067482 0.00679133 0.00678329 0.00682297 0.00679133 0.00683047 0.00682297 0.00685831 0.00683047 0.00686529 0.00685831 0.0068892 0.00686529 0.00689575 0.0068892 0.00691553 0.00689575 0.00692173 0.00691553 0.00693723 0.00692173 0.00694314 0.00693723 0.0069542 0.00694314 0.0069599 0.0069542 0.00696638 0.0069599 0.00697192 0.00696638 0.00697371 0.00697192 0.00697916 0.00697371 0.00697616 0.00697916 0.00698157 0.00698157 0.00697916 0.00698904 0.00698666 0.00697916 0.00697192 0.00698666 0.00697955 0.00697192 0.0069599 0.00697955 0.00696774 0.0069599 0.00694314 0.00696774 0.00695129 0.00694314 0.00692173 0.00695129 0.00693027 0.00692173 0.00689575 0.00693027 0.00690477 0.00689575 0.00686529 0.00690477 0.00687491 0.00686529 0.00683047 0.00687491 0.00684079 0.00683047 0.00679133 0.00684079 0.00680251 0.00679133 0.0067482 0.00680251 0.00676021 0.0067482 0.00670014 0.00676021 0.00671378 0.00670014 0.00665118 0.00671378 0.00666402 0.00665118 0.00658556 0.00666402 0.00660789 0.00658556 0.00656495 0.00660789 0.00655711 0.00656495 0.0063486 0.00655711 0.00646445 0.0063486 0.00688703 0.00646445 0.00651112 0.00688703 0.00468861 0.00651112 0.00597771 0.00468861 0.086508 0.00597771 0.00581488 0.086508 0.431793 0.00581488 0.176726 0.431793 0.818224 0.176726 0.505894 0.818224 0.995525 0.505894 0.820363 0.995525 0.995632 0.820363 0.990405 0.995632 0.994989 0.990405 0.995547 0.994989 0.995183 0.995547 0.995843 0.995183 0.995189 0.995843 0.996123 0.995189 0.995183 0.996123 0.995843 0.995183 0.994989 0.995843 0.995547 0.994989 0.995632 0.995547 0.990405 0.995632 0.995525 0.990405 0.820363 0.995525 0.818224 0.820363 0.505894 0.818224 0.431793 0.505894 0.176726 0.431793 0.086508 0.176726 0.00581488 0.086508 0.00468861 0.00581488 0.00597771 0.00468861 0.00688703 0.00597771 0.00651112 0.00688703 0.0063486 0.00651112 0.00646445 0.0063486 0.00656495 0.00646445 0.00655711 0.00656495 0.00658556 0.00655711 0.00660789 0.00658556 0.00665118 0.00660789 0.00666402 0.00665118 0.00670014 0.00666402 0.00671378 0.00670014 0.0067482 0.00671378 0.00676021 0.0067482 0.00679133 0.00676021 0.00680251 0.00679133 0.00683047 0.00680251 0.00684079 0.00683047 0.00686529 0.00684079 0.00687491 0.00686529 0.00689575 0.00687491 0.00690477 0.00689575 0.00692173 0.00690477 0.00693027 0.00692173 0.00694314 0.00693027 0.00695129 0.00694314 0.0069599 0.00695129 0.00696774 0.0069599 0.00697192 0.00696774 0.00697955 0.00697192 0.00697916 0.00697955 0.00698666 0.00697916 0.00698157 0.00698666 0.00698904 0.00698904 0.00698666 0.00699844 0.00699612 0.00698666 0.00697955 0.00699612 0.00698916 0.00697955 0.00696774 0.00698916 0.00697762 0.00696774 0.00695129 0.00697762 0.00696154 0.00695129 0.00693027 0.00696154 0.00694101 0.00693027 0.00690477 0.00694101 0.00691613 0.00690477 0.00687491 0.00691613 0.00688701 0.00687491 0.00684079 0.00688701 0.00685377 0.00684079 0.00680251 0.00685377 0.00681654 0.00680251 0.00676021 0.00681654 0.00677541 0.00676021 0.00671378 0.00677541 0.00673063 0.00671378 0.00666402 0.00673063 0.00668161 0.00666402 0.00660789 0.00668161 0.00663106 0.00660789 0.00655711 0.00663106 0.00656837 0.00655711 0.00646445 0.00656837 0.00653464 0.00646445 0.00651112 0.00653464 0.00636846 0.00651112 0.00597771 0.00636846 0.00670798 0.00597771 0.00581488 0.00670798 0.00561628 0.00581488 0.176726 0.00561628 0.00884486 0.176726 0.505894 0.00884486 0.178001 0.505894 0.820363 0.178001 0.4381 0.820363 0.990405 0.4381 0.673376 0.990405 0.995547 0.673376 0.831936 0.995547 0.995843 0.831936 0.915605 0.995843 0.996123 0.915605 0.942851 0.996123 0.995843 0.942851 0.915605 0.995843 0.995547 0.915605 0.831936 0.995547 0.990405 0.831936 0.673376 0.990405 0.820363 0.673376 0.4381 0.820363 0.505894 0.4381 0.178001 0.505894 0.176726 0.178001 0.00884486 0.176726 0.00581488 0.00884486 0.00561628 0.00581488 0.00597771 0.00561628 0.00670798 0.00597771 0.00651112 0.00670798 0.00636846 0.00651112 0.00646445 0.00636846 0.00653464 0.00646445 0.00655711 0.00653464 0.00656837 0.00655711 0.00660789 0.00656837 0.00663106 0.00660789 0.00666402 0.00663106 0.00668161 0.00666402 0.00671378 0.00668161 0.00673063 0.00671378 0.00676021 0.00673063 0.00677541 0.00676021 0.00680251 0.00677541 0.00681654 0.00680251 0.00684079 0.00681654 0.00685377 0.00684079 0.00687491 0.00685377 0.00688701 0.00687491 0.00690477 0.00688701 0.00691613 0.00690477 0.00693027 0.00691613 0.00694101 0.00693027 0.00695129 0.00694101 0.00696154 0.00695129 0.00696774 0.00696154 0.00697762 0.00696774 0.00697955 0.00697762 0.00698916 0.00697955 0.00698666 0.00698916 0.00699612 0.00698666 0.00698904 0.00699612 0.00699844 0.00699844 0.00699612 0.00700963 0.00700737 0.00699612 0.00698916 0.00700737 0.00700061 0.00698916 0.00697762 0.00700061 0.00698937 0.00697762 0.00696154 0.00698937 0.00697373 0.00696154 0.00694101 0.00697373 0.00695378 0.00694101 0.00691613 0.00695378 0.00692962 0.00691613 0.00688701 0.00692962 0.00690138 0.00688701 0.00685377 0.00690138 0.00686918 0.00685377 0.00681654 0.00686918 0.00683319 0.00681654 0.00677541 0.00683319 0.00679353 0.00677541 0.00673063 0.00679353 0.00675032 0.00673063 0.00668161 0.00675032 0.00670387 0.00668161 0.00663106 0.00670387 0.00665355 0.00663106 0.00656837 0.00665355 0.00660244 0.00656837 0.00653464 0.00660244 0.00653919 0.00653464 0.00636846 0.00653919 0.00650983 0.00636846 0.00670798 0.00650983 0.00633882 0.00670798 0.00561628 0.00633882 0.00658232 0.00561628 0.00884486 0.00658232 0.00559766 0.00884486 0.178001 0.00559766 0.0058705 0.178001 0.4381 0.0058705 0.0914531 0.4381 0.673376 0.0914531 0.247812 0.673376 0.831936 0.247812 0.390342 0.831936 0.915605 0.390342 0.487984 0.915605 0.942851 0.487984 0.523218 0.942851 0.915605 0.523218 0.487984 0.915605 0.831936 0.487984 0.390342 0.831936 0.673376 0.390342 0.247812 0.673376 0.4381 0.247812 0.0914531 0.4381 0.178001 0.0914531 0.0058705 0.178001 0.00884486 0.0058705 0.00559766 0.00884486 0.00561628 0.00559766 0.00658232 0.00561628 0.00670798 0.00658232 0.00633882 0.00670798 0.00636846 0.00633882 0.00650983 0.00636846 0.00653464 0.00650983 0.00653919 0.00653464 0.00656837 0.00653919 0.00660244 0.00656837 0.00663106 0.00660244 0.00665355 0.00663106 0.00668161 0.00665355 0.00670387 0.00668161 0.00673063 0.00670387 0.00675032 0.00673063 0.00677541 0.00675032 0.00679353 0.00677541 0.00681654 0.00679353 0.00683319 0.00681654 0.00685377 0.00683319 0.00686918 0.00685377 0.00688701 0.00686918 0.00690138 0.00688701 0.00691613 0.00690138 0.00692962 0.00691613 0.00694101 0.00692962 0.00695378 0.00694101 0.00696154 0.00695378 0.00697373 0.00696154 0.00697762 0.00697373 0.00698937 0.00697762 0.00698916 0.00698937 0.00700061 0.00698916 0.00699612 0.00700061 0.00700737 0.00699612 0.00699844 0.00700737 0.00700963 0.00700963 0.00700737 0.00702245 0.00702026 0.00700737 0.00700061 0.00702026 0.0070137 0.00700061 0.00698937 0.0070137 0.00700282 0.00698937 0.00697373 0.00700282 0.00698768 0.00697373 0.00695378 0.00698768 0.00696837 0.00695378 0.00692962 0.00696837 0.00694503 0.00692962 0.00690138 0.00694503 0.00691777 0.00690138 0.00686918 0.00691777 0.00688676 0.00686918 0.00683319 0.00688676 0.00685216 0.00683319 0.00679353 0.00685216 0.00681413 0.00679353 0.00675032 0.00681413 0.00677288 0.00675032 0.00670387 0.00677288 0.00672854 0.00670387 0.00665355 0.00672854 0.00668158 0.00665355 0.00660244 0.00668158 0.00663122 0.00660244 0.00653919 0.00663122 0.00658206 0.00653919 0.00650983 0.00658206 0.00651842 0.00650983 0.00633882 0.00651842 0.00650468 0.00633882 0.00658232 0.00650468 0.00632865 0.00658232 0.00559766 0.00632865 0.0066935 0.00559766 0.0058705 0.0066935 0.00591258 0.0058705 0.0914531 0.00591258 0.00472895 0.0914531 0.247812 0.00472895 0.00723396 0.247812 0.390342 0.00723396 0.0333672 0.390342 0.487984 0.0333672 0.0832524 0.487984 0.523218 0.0832524 0.104239 0.523218 0.487984 0.104239 0.0832524 0.487984 0.390342 0.0832524 0.0333672 0.390342 0.247812 0.0333672 0.00723396 0.247812 0.0914531 0.00723396 0.00472895 0.0914531 0.0058705 0.00472895 0.00591258 0.0058705 0.00559766 0.00591258 0.0066935 0.00559766 0.00658232 0.0066935 0.00632865 0.00658232 0.00633882 0.00632865 0.00650468 0.00633882 0.00650983 0.00650468 0.00651842 0.00650983 0.00653919 0.00651842 0.00658206 0.00653919 0.00660244 0.00658206 0.00663122 0.00660244 0.00665355 0.00663122 0.00668158 0.00665355 0.00670387 0.00668158 0.00672854 0.00670387 0.00675032 0.00672854 0.00677288 0.00675032 0.00679353 0.00677288 0.00681413 0.00679353 0.00683319 0.00681413 0.00685216 0.00683319 0.00686918 0.00685216 0.00688676 0.00686918 0.00690138 0.00688676 0.00691777 0.00690138 0.00692962 0.00691777 0.00694503 0.00692962 0.00695378 0.00694503 0.00696837 0.00695378 0.00697373 0.00696837 0.00698768 0.00697373 0.00698937 0.00698768 0.00700282 0.00698937 0.00700061 0.00700282 0.0070137 0.00700061 0.00700737 0.0070137 0.00702026 0.00700737 0.00700963 0.00702026 0.00702245 0.00702245 0.00702026 0.00703669 0.00703457 0.00702026 0.0070137 0.00703457 0.00702824 0.0070137 0.00700282 0.00702824 0.00701774 0.00700282 0.00698768 0.00701774 0.00700315 0.00698768 0.00696837 0.00700315 0.00698456 0.00696837 0.00694503 0.00698456 0.0069621 0.00694503 0.00691777 0.0069621 0.00693592 0.00691777 0.00688676 0.00693592 0.0069062 0.00688676 0.00685216 0.0069062 0.0068731 0.00685216 0.00681413 0.0068731 0.00683685 0.00681413 0.00677288 0.00683685 0.00679765 0.00677288 0.00672854 0.00679765 0.00675578 0.00672854 0.00668158 0.00675578 0.00671145 0.00668158 0.00663122 0.00671145 0.00666528 0.00663122 0.00658206 0.00666528 0.00661667 0.00658206 0.00651842 0.00661667 0.00657027 0.00651842 0.00650468 0.00657027 0.0065107 0.00650468 0.00632865 0.0065107 0.00649184 0.00632865 0.0066935 0.00649184 0.00633958 0.0066935 0.00591258 0.00633958 0.00646502 0.00591258 0.00472895 0.00646502 0.00682548 0.00472895 0.00723396 0.00682548 0.00583865 0.00723396 0.0333672 0.00583865 0.00447746 0.0333672 0.0832524 0.00447746 0.00464308 0.0832524 0.104239 0.00464308 0.00486469 0.104239 0.0832524 0.00486469 0.00464308 0.0832524 0.0333672 0.00464308 0.00447746 0.0333672 0.00723396 0.00447746 0.00583865 0.00723396 0.00472895 0.00583865 0.00682548 0.00472895 0.00591258 0.00682548 0.00646502 0.00591258 0.0066935 0.00646502 0.00633958 0.0066935 0.00632865 0.00633958 0.00649184 0.00632865 0.00650468 0.00649184 0.0065107 0.00650468 0.00651842 0.0065107 0.00657027 0.00651842 0.00658206 0.00657027 0.00661667 0.00658206 0.00663122 0.00661667 0.00666528 0.00663122 0.00668158 0.00666528 0.00671145 0.00668158 0.00672854 0.00671145 0.00675578 0.00672854 0.00677288 0.00675578 0.00679765 0.00677288 0.00681413 0.00679765 0.00683685 0.00681413 0.00685216 0.00683685 0.0068731 0.00685216 0.00688676 0.0068731 0.0069062 0.00688676 0.00691777 0.0069062 0.00693592 0.00691777 0.00694503 0.00693592 0.0069621 0.00694503 0.00696837 0.0069621 0.00698456 0.00696837 0.00698768 0.00698456 0.00700315 0.00698768 0.00700282 0.00700315 0.00701774 0.00700282 0.0070137 0.00701774 0.00702824 0.0070137 0.00702026 0.00702824 0.00703457 0.00702026 0.00702245 0.00703457 0.00703669 0.00703669 0.00703457 0.00705212 0.00705009 0.00703457 0.00702824 0.00705009 0.007044 0.00702824 0.00701774 0.007044 0.00703391 0.00701774 0.00700315 0.00703391 0.0070199 0.00700315 0.00698456 0.0070199 0.00700207 0.00698456 0.0069621 0.00700207 0.00698055 0.0069621 0.00693592 0.00698055 0.00695551 0.00693592 0.0069062 0.00695551 0.00692714 0.0069062 0.0068731 0.00692714 0.00689564 0.0068731 0.00683685 0.00689564 0.00686123 0.00683685 0.00679765 0.00686123 0.00682418 0.00679765 0.00675578 0.00682418 0.00678477 0.00675578 0.00671145 0.00678477 0.00674334 0.00671145 0.00666528 0.00674334 0.00670022 0.00666528 0.00661667 0.00670022 0.00665612 0.00661667 0.00657027 0.00665612 0.00661049 0.00657027 0.0065107 0.00661049 0.00656799 0.0065107 0.00649184 0.00656799 0.00651542 0.00649184 0.00633958 0.00651542 0.00649815 0.00633958 0.00646502 0.00649815 0.00641216 0.00646502 0.00682548 0.00641216 0.00627245 0.00682548 0.00583865 0.00627245 0.00646712 0.00583865 0.00447746 0.00646712 0.00687019 0.00447746 0.00464308 0.00687019 0.00678497 0.00464308 0.00486469 0.00678497 0.00669197 0.00486469 0.00464308 0.00669197 0.00678497 0.00464308 0.00447746 0.00678497 0.00687019 0.00447746 0.00583865 0.00687019 0.00646712 0.00583865 0.00682548 0.00646712 0.00627245 0.00682548 0.00646502 0.00627245 0.00641216 0.00646502 0.00633958 0.00641216 0.00649815 0.00633958 0.00649184 0.00649815 0.00651542 0.00649184 0.0065107 0.00651542 0.00656799 0.0065107 0.00657027 0.00656799 0.00661049 0.00657027 0.00661667 0.00661049 0.00665612 0.00661667 0.00666528 0.00665612 0.00670022 0.00666528 0.00671145 0.00670022 0.00674334 0.00671145 0.00675578 0.00674334 0.00678477 0.00675578 0.00679765 0.00678477 0.00682418 0.00679765 0.00683685 0.00682418 0.00686123 0.00683685 0.0068731 0.00686123 0.00689564 0.0068731 0.0069062 0.00689564 0.00692714 0.0069062 0.00693592 0.00692714 0.00695551 0.00693592 0.0069621 0.00695551 0.00698055 0.0069621 0.00698456 0.00698055 0.00700207 0.00698456 0.00700315 0.00700207 0.0070199 0.00700315 0.00701774 0.0070199 0.00703391 0.00701774 0.00702824 0.00703391 0.007044 0.00702824 0.00703457 0.007044 0.00705009 0.00703457 0.00703669 0.00705009 0.00705212 0.00705212 0.00705009 0.00706852 0.00706657 0.00705009 0.007044 0.00706657 0.00706074 0.007044 0.00703391 0.00706074 0.00705108 0.00703391 0.0070199 0.00705108 0.00703767 0.0070199 0.00700207 0.00703767 0.00702062 0.00700207 0.00698055 0.00702062 0.00700008 0.00698055 0.00695551 0.00700008 0.00697622 0.00695551 0.00692714 0.00697622 0.00694924 0.00692714 0.00689564 0.00694924 0.00691936 0.00689564 0.00686123 0.00691936 0.00688683 0.00686123 0.00682418 0.00688683 0.00685194 0.00682418 0.00678477 0.00685194 0.00681499 0.00678477 0.00674334 0.00681499 0.00677634 0.00674334 0.00670022 0.00677634 0.0067364 0.00670022 0.00665612 0.0067364 0.00669555 0.00665612 0.00661049 0.00669555 0.00665455 0.00661049 0.00656799 0.00665455 0.00661287 0.00656799 0.00651542 0.00661287 0.00657459 0.00651542 0.00649815 0.00657459 0.00652888 0.00649815 0.00641216 0.00652888 0.00650304 0.00641216 0.00627245 0.00650304 0.00649418 0.00627245 0.00646712 0.00649418 0.00640231 0.00646712 0.00687019 0.00640231 0.00627183 0.00687019 0.00678497 0.006