# vtk DataFile Version 3.0
#This file was generated by the deal.II library on 2023/1/15 at 18:54:15
ASCII
DATASET UNSTRUCTURED_GRID

POINTS 5000 double
0 0 0
0.04 0 0
0 0.04 0
0.04 0.04 0
0.04 0 0
0.08 0 0
0.04 0.04 0
0.08 0.04 0
0.08 0 0
0.12 0 0
0.08 0.04 0
0.12 0.04 0
0.12 0 0
0.16 0 0
0.12 0.04 0
0.16 0.04 0
0.16 0 0
0.2 0 0
0.16 0.04 0
0.2 0.04 0
0.2 0 0
0.24 0 0
0.2 0.04 0
0.24 0.04 0
0.24 0 0
0.28 0 0
0.24 0.04 0
0.28 0.04 0
0.28 0 0
0.32 0 0
0.28 0.04 0
0.32 0.04 0
0.32 0 0
0.36 0 0
0.32 0.04 0
0.36 0.04 0
0.36 0 0
0.4 0 0
0.36 0.04 0
0.4 0.04 0
0.4 0 0
0.44 0 0
0.4 0.04 0
0.44 0.04 0
0.44 0 0
0.48 0 0
0.44 0.04 0
0.48 0.04 0
0.48 0 0
0.52 0 0
0.48 0.04 0
0.52 0.04 0
0.52 0 0
0.56 0 0
0.52 0.04 0
0.56 0.04 0
0.56 0 0
0.6 0 0
0.56 0.04 0
0.6 0.04 0
0.6 0 0
0.64 0 0
0.6 0.04 0
0.64 0.04 0
0.64 0 0
0.68 0 0
0.64 0.04 0
0.68 0.04 0
0.68 0 0
0.72 0 0
0.68 0.04 0
0.72 0.04 0
0.72 0 0
0.76 0 0
0.72 0.04 0
0.76 0.04 0
0.76 0 0
0.8 0 0
0.76 0.04 0
0.8 0.04 0
0.8 0 0
0.84 0 0
0.8 0.04 0
0.84 0.04 0
0.84 0 0
0.88 0 0
0.84 0.04 0
0.88 0.04 0
0.88 0 0
0.92 0 0
0.88 0.04 0
0.92 0.04 0
0.92 0 0
0.96 0 0
0.92 0.04 0
0.96 0.04 0
0.96 0 0
1 0 0
0.96 0.04 0
1 0.04 0
1 0 0
1.04 0 0
1 0.04 0
1.04 0.04 0
1.04 0 0
1.08 0 0
1.04 0.04 0
1.08 0.04 0
1.08 0 0
1.12 0 0
1.08 0.04 0
1.12 0.04 0
1.12 0 0
1.16 0 0
1.12 0.04 0
1.16 0.04 0
1.16 0 0
1.2 0 0
1.16 0.04 0
1.2 0.04 0
1.2 0 0
1.24 0 0
1.2 0.04 0
1.24 0.04 0
1.24 0 0
1.28 0 0
1.24 0.04 0
1.28 0.04 0
1.28 0 0
1.32 0 0
1.28 0.04 0
1.32 0.04 0
1.32 0 0
1.36 0 0
1.32 0.04 0
1.36 0.04 0
1.36 0 0
1.4 0 0
1.36 0.04 0
1.4 0.04 0
1.4 0 0
1.44 0 0
1.4 0.04 0
1.44 0.04 0
1.44 0 0
1.48 0 0
1.44 0.04 0
1.48 0.04 0
1.48 0 0
1.52 0 0
1.48 0.04 0
1.52 0.04 0
1.52 0 0
1.56 0 0
1.52 0.04 0
1.56 0.04 0
1.56 0 0
1.6 0 0
1.56 0.04 0
1.6 0.04 0
1.6 0 0
1.64 0 0
1.6 0.04 0
1.64 0.04 0
1.64 0 0
1.68 0 0
1.64 0.04 0
1.68 0.04 0
1.68 0 0
1.72 0 0
1.68 0.04 0
1.72 0.04 0
1.72 0 0
1.76 0 0
1.72 0.04 0
1.76 0.04 0
1.76 0 0
1.8 0 0
1.76 0.04 0
1.8 0.04 0
1.8 0 0
1.84 0 0
1.8 0.04 0
1.84 0.04 0
1.84 0 0
1.88 0 0
1.84 0.04 0
1.88 0.04 0
1.88 0 0
1.92 0 0
1.88 0.04 0
1.92 0.04 0
1.92 0 0
1.96 0 0
1.92 0.04 0
1.96 0.04 0
1.96 0 0
2 0 0
1.96 0.04 0
2 0.04 0
0 0.04 0
0.04 0.04 0
0 0.08 0
0.04 0.08 0
0.04 0.04 0
0.08 0.04 0
0.04 0.08 0
0.08 0.08 0
0.08 0.04 0
0.12 0.04 0
0.08 0.08 0
0.12 0.08 0
0.12 0.04 0
0.16 0.04 0
0.12 0.08 0
0.16 0.08 0
0.16 0.04 0
0.2 0.04 0
0.16 0.08 0
0.2 0.08 0
0.2 0.04 0
0.24 0.04 0
0.2 0.08 0
0.24 0.08 0
0.24 0.04 0
0.28 0.04 0
0.24 0.08 0
0.28 0.08 0
0.28 0.04 0
0.32 0.04 0
0.28 0.08 0
0.32 0.08 0
0.32 0.04 0
0.36 0.04 0
0.32 0.08 0
0.36 0.08 0
0.36 0.04 0
0.4 0.04 0
0.36 0.08 0
0.4 0.08 0
0.4 0.04 0
0.44 0.04 0
0.4 0.08 0
0.44 0.08 0
0.44 0.04 0
0.48 0.04 0
0.44 0.08 0
0.48 0.08 0
0.48 0.04 0
0.52 0.04 0
0.48 0.08 0
0.52 0.08 0
0.52 0.04 0
0.56 0.04 0
0.52 0.08 0
0.56 0.08 0
0.56 0.04 0
0.6 0.04 0
0.56 0.08 0
0.6 0.08 0
0.6 0.04 0
0.64 0.04 0
0.6 0.08 0
0.64 0.08 0
0.64 0.04 0
0.68 0.04 0
0.64 0.08 0
0.68 0.08 0
0.68 0.04 0
0.72 0.04 0
0.68 0.08 0
0.72 0.08 0
0.72 0.04 0
0.76 0.04 0
0.72 0.08 0
0.76 0.08 0
0.76 0.04 0
0.8 0.04 0
0.76 0.08 0
0.8 0.08 0
0.8 0.04 0
0.84 0.04 0
0.8 0.08 0
0.84 0.08 0
0.84 0.04 0
0.88 0.04 0
0.84 0.08 0
0.88 0.08 0
0.88 0.04 0
0.92 0.04 0
0.88 0.08 0
0.92 0.08 0
0.92 0.04 0
0.96 0.04 0
0.92 0.08 0
0.96 0.08 0
0.96 0.04 0
1 0.04 0
0.96 0.08 0
1 0.08 0
1 0.04 0
1.04 0.04 0
1 0.08 0
1.04 0.08 0
1.04 0.04 0
1.08 0.04 0
1.04 0.08 0
1.08 0.08 0
1.08 0.04 0
1.12 0.04 0
1.08 0.08 0
1.12 0.08 0
1.12 0.04 0
1.16 0.04 0
1.12 0.08 0
1.16 0.08 0
1.16 0.04 0
1.2 0.04 0
1.16 0.08 0
1.2 0.08 0
1.2 0.04 0
1.24 0.04 0
1.2 0.08 0
1.24 0.08 0
1.24 0.04 0
1.28 0.04 0
1.24 0.08 0
1.28 0.08 0
1.28 0.04 0
1.32 0.04 0
1.28 0.08 0
1.32 0.08 0
1.32 0.04 0
1.36 0.04 0
1.32 0.08 0
1.36 0.08 0
1.36 0.04 0
1.4 0.04 0
1.36 0.08 0
1.4 0.08 0
1.4 0.04 0
1.44 0.04 0
1.4 0.08 0
1.44 0.08 0
1.44 0.04 0
1.48 0.04 0
1.44 0.08 0
1.48 0.08 0
1.48 0.04 0
1.52 0.04 0
1.48 0.08 0
1.52 0.08 0
1.52 0.04 0
1.56 0.04 0
1.52 0.08 0
1.56 0.08 0
1.56 0.04 0
1.6 0.04 0
1.56 0.08 0
1.6 0.08 0
1.6 0.04 0
1.64 0.04 0
1.6 0.08 0
1.64 0.08 0
1.64 0.04 0
1.68 0.04 0
1.64 0.08 0
1.68 0.08 0
1.68 0.04 0
1.72 0.04 0
1.68 0.08 0
1.72 0.08 0
1.72 0.04 0
1.76 0.04 0
1.72 0.08 0
1.76 0.08 0
1.76 0.04 0
1.8 0.04 0
1.76 0.08 0
1.8 0.08 0
1.8 0.04 0
1.84 0.04 0
1.8 0.08 0
1.84 0.08 0
1.84 0.04 0
1.88 0.04 0
1.84 0.08 0
1.88 0.08 0
1.88 0.04 0
1.92 0.04 0
1.88 0.08 0
1.92 0.08 0
1.92 0.04 0
1.96 0.04 0
1.92 0.08 0
1.96 0.08 0
1.96 0.04 0
2 0.04 0
1.96 0.08 0
2 0.08 0
0 0.08 0
0.04 0.08 0
0 0.12 0
0.04 0.12 0
0.04 0.08 0
0.08 0.08 0
0.04 0.12 0
0.08 0.12 0
0.08 0.08 0
0.12 0.08 0
0.08 0.12 0
0.12 0.12 0
0.12 0.08 0
0.16 0.08 0
0.12 0.12 0
0.16 0.12 0
0.16 0.08 0
0.2 0.08 0
0.16 0.12 0
0.2 0.12 0
0.2 0.08 0
0.24 0.08 0
0.2 0.12 0
0.24 0.12 0
0.24 0.08 0
0.28 0.08 0
0.24 0.12 0
0.28 0.12 0
0.28 0.08 0
0.32 0.08 0
0.28 0.12 0
0.32 0.12 0
0.32 0.08 0
0.36 0.08 0
0.32 0.12 0
0.36 0.12 0
0.36 0.08 0
0.4 0.08 0
0.36 0.12 0
0.4 0.12 0
0.4 0.08 0
0.44 0.08 0
0.4 0.12 0
0.44 0.12 0
0.44 0.08 0
0.48 0.08 0
0.44 0.12 0
0.48 0.12 0
0.48 0.08 0
0.52 0.08 0
0.48 0.12 0
0.52 0.12 0
0.52 0.08 0
0.56 0.08 0
0.52 0.12 0
0.56 0.12 0
0.56 0.08 0
0.6 0.08 0
0.56 0.12 0
0.6 0.12 0
0.6 0.08 0
0.64 0.08 0
0.6 0.12 0
0.64 0.12 0
0.64 0.08 0
0.68 0.08 0
0.64 0.12 0
0.68 0.12 0
0.68 0.08 0
0.72 0.08 0
0.68 0.12 0
0.72 0.12 0
0.72 0.08 0
0.76 0.08 0
0.72 0.12 0
0.76 0.12 0
0.76 0.08 0
0.8 0.08 0
0.76 0.12 0
0.8 0.12 0
0.8 0.08 0
0.84 0.08 0
0.8 0.12 0
0.84 0.12 0
0.84 0.08 0
0.88 0.08 0
0.84 0.12 0
0.88 0.12 0
0.88 0.08 0
0.92 0.08 0
0.88 0.12 0
0.92 0.12 0
0.92 0.08 0
0.96 0.08 0
0.92 0.12 0
0.96 0.12 0
0.96 0.08 0
1 0.08 0
0.96 0.12 0
1 0.12 0
1 0.08 0
1.04 0.08 0
1 0.12 0
1.04 0.12 0
1.04 0.08 0
1.08 0.08 0
1.04 0.12 0
1.08 0.12 0
1.08 0.08 0
1.12 0.08 0
1.08 0.12 0
1.12 0.12 0
1.12 0.08 0
1.16 0.08 0
1.12 0.12 0
1.16 0.12 0
1.16 0.08 0
1.2 0.08 0
1.16 0.12 0
1.2 0.12 0
1.2 0.08 0
1.24 0.08 0
1.2 0.12 0
1.24 0.12 0
1.24 0.08 0
1.28 0.08 0
1.24 0.12 0
1.28 0.12 0
1.28 0.08 0
1.32 0.08 0
1.28 0.12 0
1.32 0.12 0
1.32 0.08 0
1.36 0.08 0
1.32 0.12 0
1.36 0.12 0
1.36 0.08 0
1.4 0.08 0
1.36 0.12 0
1.4 0.12 0
1.4 0.08 0
1.44 0.08 0
1.4 0.12 0
1.44 0.12 0
1.44 0.08 0
1.48 0.08 0
1.44 0.12 0
1.48 0.12 0
1.48 0.08 0
1.52 0.08 0
1.48 0.12 0
1.52 0.12 0
1.52 0.08 0
1.56 0.08 0
1.52 0.12 0
1.56 0.12 0
1.56 0.08 0
1.6 0.08 0
1.56 0.12 0
1.6 0.12 0
1.6 0.08 0
1.64 0.08 0
1.6 0.12 0
1.64 0.12 0
1.64 0.08 0
1.68 0.08 0
1.64 0.12 0
1.68 0.12 0
1.68 0.08 0
1.72 0.08 0
1.68 0.12 0
1.72 0.12 0
1.72 0.08 0
1.76 0.08 0
1.72 0.12 0
1.76 0.12 0
1.76 0.08 0
1.8 0.08 0
1.76 0.12 0
1.8 0.12 0
1.8 0.08 0
1.84 0.08 0
1.8 0.12 0
1.84 0.12 0
1.84 0.08 0
1.88 0.08 0
1.84 0.12 0
1.88 0.12 0
1.88 0.08 0
1.92 0.08 0
1.88 0.12 0
1.92 0.12 0
1.92 0.08 0
1.96 0.08 0
1.92 0.12 0
1.96 0.12 0
1.96 0.08 0
2 0.08 0
1.96 0.12 0
2 0.12 0
0 0.12 0
0.04 0.12 0
0 0.16 0
0.04 0.16 0
0.04 0.12 0
0.08 0.12 0
0.04 0.16 0
0.08 0.16 0
0.08 0.12 0
0.12 0.12 0
0.08 0.16 0
0.12 0.16 0
0.12 0.12 0
0.16 0.12 0
0.12 0.16 0
0.16 0.16 0
0.16 0.12 0
0.2 0.12 0
0.16 0.16 0
0.2 0.16 0
0.2 0.12 0
0.24 0.12 0
0.2 0.16 0
0.24 0.16 0
0.24 0.12 0
0.28 0.12 0
0.24 0.16 0
0.28 0.16 0
0.28 0.12 0
0.32 0.12 0
0.28 0.16 0
0.32 0.16 0
0.32 0.12 0
0.36 0.12 0
0.32 0.16 0
0.36 0.16 0
0.36 0.12 0
0.4 0.12 0
0.36 0.16 0
0.4 0.16 0
0.4 0.12 0
0.44 0.12 0
0.4 0.16 0
0.44 0.16 0
0.44 0.12 0
0.48 0.12 0
0.44 0.16 0
0.48 0.16 0
0.48 0.12 0
0.52 0.12 0
0.48 0.16 0
0.52 0.16 0
0.52 0.12 0
0.56 0.12 0
0.52 0.16 0
0.56 0.16 0
0.56 0.12 0
0.6 0.12 0
0.56 0.16 0
0.6 0.16 0
0.6 0.12 0
0.64 0.12 0
0.6 0.16 0
0.64 0.16 0
0.64 0.12 0
0.68 0.12 0
0.64 0.16 0
0.68 0.16 0
0.68 0.12 0
0.72 0.12 0
0.68 0.16 0
0.72 0.16 0
0.72 0.12 0
0.76 0.12 0
0.72 0.16 0
0.76 0.16 0
0.76 0.12 0
0.8 0.12 0
0.76 0.16 0
0.8 0.16 0
0.8 0.12 0
0.84 0.12 0
0.8 0.16 0
0.84 0.16 0
0.84 0.12 0
0.88 0.12 0
0.84 0.16 0
0.88 0.16 0
0.88 0.12 0
0.92 0.12 0
0.88 0.16 0
0.92 0.16 0
0.92 0.12 0
0.96 0.12 0
0.92 0.16 0
0.96 0.16 0
0.96 0.12 0
1 0.12 0
0.96 0.16 0
1 0.16 0
1 0.12 0
1.04 0.12 0
1 0.16 0
1.04 0.16 0
1.04 0.12 0
1.08 0.12 0
1.04 0.16 0
1.08 0.16 0
1.08 0.12 0
1.12 0.12 0
1.08 0.16 0
1.12 0.16 0
1.12 0.12 0
1.16 0.12 0
1.12 0.16 0
1.16 0.16 0
1.16 0.12 0
1.2 0.12 0
1.16 0.16 0
1.2 0.16 0
1.2 0.12 0
1.24 0.12 0
1.2 0.16 0
1.24 0.16 0
1.24 0.12 0
1.28 0.12 0
1.24 0.16 0
1.28 0.16 0
1.28 0.12 0
1.32 0.12 0
1.28 0.16 0
1.32 0.16 0
1.32 0.12 0
1.36 0.12 0
1.32 0.16 0
1.36 0.16 0
1.36 0.12 0
1.4 0.12 0
1.36 0.16 0
1.4 0.16 0
1.4 0.12 0
1.44 0.12 0
1.4 0.16 0
1.44 0.16 0
1.44 0.12 0
1.48 0.12 0
1.44 0.16 0
1.48 0.16 0
1.48 0.12 0
1.52 0.12 0
1.48 0.16 0
1.52 0.16 0
1.52 0.12 0
1.56 0.12 0
1.52 0.16 0
1.56 0.16 0
1.56 0.12 0
1.6 0.12 0
1.56 0.16 0
1.6 0.16 0
1.6 0.12 0
1.64 0.12 0
1.6 0.16 0
1.64 0.16 0
1.64 0.12 0
1.68 0.12 0
1.64 0.16 0
1.68 0.16 0
1.68 0.12 0
1.72 0.12 0
1.68 0.16 0
1.72 0.16 0
1.72 0.12 0
1.76 0.12 0
1.72 0.16 0
1.76 0.16 0
1.76 0.12 0
1.8 0.12 0
1.76 0.16 0
1.8 0.16 0
1.8 0.12 0
1.84 0.12 0
1.8 0.16 0
1.84 0.16 0
1.84 0.12 0
1.88 0.12 0
1.84 0.16 0
1.88 0.16 0
1.88 0.12 0
1.92 0.12 0
1.88 0.16 0
1.92 0.16 0
1.92 0.12 0
1.96 0.12 0
1.92 0.16 0
1.96 0.16 0
1.96 0.12 0
2 0.12 0
1.96 0.16 0
2 0.16 0
0 0.16 0
0.04 0.16 0
0 0.2 0
0.04 0.2 0
0.04 0.16 0
0.08 0.16 0
0.04 0.2 0
0.08 0.2 0
0.08 0.16 0
0.12 0.16 0
0.08 0.2 0
0.12 0.2 0
0.12 0.16 0
0.16 0.16 0
0.12 0.2 0
0.16 0.2 0
0.16 0.16 0
0.2 0.16 0
0.16 0.2 0
0.2 0.2 0
0.2 0.16 0
0.24 0.16 0
0.2 0.2 0
0.24 0.2 0
0.24 0.16 0
0.28 0.16 0
0.24 0.2 0
0.28 0.2 0
0.28 0.16 0
0.32 0.16 0
0.28 0.2 0
0.32 0.2 0
0.32 0.16 0
0.36 0.16 0
0.32 0.2 0
0.36 0.2 0
0.36 0.16 0
0.4 0.16 0
0.36 0.2 0
0.4 0.2 0
0.4 0.16 0
0.44 0.16 0
0.4 0.2 0
0.44 0.2 0
0.44 0.16 0
0.48 0.16 0
0.44 0.2 0
0.48 0.2 0
0.48 0.16 0
0.52 0.16 0
0.48 0.2 0
0.52 0.2 0
0.52 0.16 0
0.56 0.16 0
0.52 0.2 0
0.56 0.2 0
0.56 0.16 0
0.6 0.16 0
0.56 0.2 0
0.6 0.2 0
0.6 0.16 0
0.64 0.16 0
0.6 0.2 0
0.64 0.2 0
0.64 0.16 0
0.68 0.16 0
0.64 0.2 0
0.68 0.2 0
[...]
POINT_DATA 5000
SCALARS c1 double 1
LOOKUP_TABLE default
0.00763969 0.00763485 0.00764184 0.00763701 0.00763485 0.00762036 0.00763701 0.00762256 0.00762036 0.00759635 0.00762256 0.00759861 0.00759635 0.00756301 0.00759861 0.00756534 0.00756301 0.00752057 0.00756534 0.00752302 0.00752057 0.00746934 0.00752302 0.00747191 0.00746934 0.0074096 0.00747191 0.00741234 0.0074096 0.00734168 0.00741234 0.00734463 0.00734168 0.00726578 0.00734463 0.00726898 0.00726578 0.0071824 0.00726898 0.00718593 0.0071824 0.00709055 0.00718593 0.00709444 0.00709055 0.00699468 0.00709444 0.00699922 0.00699468 0.00687689 0.00699922 0.00688167 0.00687689 0.00680581 0.00688167 0.00681355 0.00680581 0.00651197 0.00681355 0.0065142 0.00651197 0.00705519 0.0065142 0.00708982 0.00705519 0.00464762 0.00708982 0.00458157 0.00464762 0.060018 0.00458157 0.0381184 0.060018 0.451162 0.0381184 0.400364 0.451162 0.898556 0.400364 0.850478 0.898556 0.995847 0.850478 0.996098 0.995847 0.996287 0.996098 0.995239 0.996287 0.997369 0.995239 0.996516 0.997369 0.997662 0.996516 0.996788 0.997662 0.997797 0.996788 0.996899 0.997797 0.997662 0.996899 0.996788 0.997662 0.997369 0.996788 0.996516 0.997369 0.996287 0.996516 0.995239 0.996287 0.995847 0.995239 0.996098 0.995847 0.898556 0.996098 0.850478 0.898556 0.451162 0.850478 0.400364 0.451162 0.060018 0.400364 0.0381184 0.060018 0.00464762 0.0381184 0.00458157 0.00464762 0.00705519 0.00458157 0.00708982 0.00705519 0.00651197 0.00708982 0.0065142 0.00651197 0.00680581 0.0065142 0.00681355 0.00680581 0.00687689 0.00681355 0.00688167 0.00687689 0.00699468 0.00688167 0.00699922 0.00699468 0.00709055 0.00699922 0.00709444 0.00709055 0.0071824 0.00709444 0.00718593 0.0071824 0.00726578 0.00718593 0.00726898 0.00726578 0.00734168 0.00726898 0.00734463 0.00734168 0.0074096 0.00734463 0.00741234 0.0074096 0.00746934 0.00741234 0.00747191 0.00746934 0.00752057 0.00747191 0.00752302 0.00752057 0.00756301 0.00752302 0.00756534 0.00756301 0.00759635 0.00756534 0.00759861 0.00759635 0.00762036 0.00759861 0.00762256 0.00762036 0.00763485 0.00762256 0.00763701 0.00763485 0.00763969 0.00763701 0.00764184 0.00764184 0.00763701 0.00764829 0.00764349 0.00763701 0.00762256 0.00764349 0.00762914 0.00762256 0.00759861 0.00762914 0.00760535 0.00759861 0.00756534 0.00760535 0.00757232 0.00756534 0.00752302 0.00757232 0.0075303 0.00752302 0.00747191 0.0075303 0.0074796 0.00747191 0.00741234 0.0074796 0.00742052 0.00741234 0.00734463 0.00742052 0.00735341 0.00734463 0.00726898 0.00735341 0.00727855 0.00726898 0.00718593 0.00727855 0.00719629 0.00718593 0.00709444 0.00719629 0.00710648 0.00709444 0.00699922 0.00710648 0.00701075 0.00699922 0.00688167 0.00701075 0.00690312 0.00688167 0.00681355 0.00690312 0.006807 0.00681355 0.0065142 0.006807 0.00663054 0.0065142 0.00708982 0.00663054 0.00673111 0.00708982 0.00458157 0.00673111 0.00575243 0.00458157 0.0381184 0.00575243 0.00876279 0.0381184 0.400364 0.00876279 0.264735 0.400364 0.850478 0.264735 0.688228 0.850478 0.996098 0.688228 0.991198 0.996098 0.995239 0.991198 0.9963 0.995239 0.996516 0.9963 0.99501 0.996516 0.996788 0.99501 0.995541 0.996788 0.996899 0.995541 0.995692 0.996899 0.996788 0.995692 0.995541 0.996788 0.996516 0.995541 0.99501 0.996516 0.995239 0.99501 0.9963 0.995239 0.996098 0.9963 0.991198 0.996098 0.850478 0.991198 0.688228 0.850478 0.400364 0.688228 0.264735 0.400364 0.0381184 0.264735 0.00876279 0.0381184 0.00458157 0.00876279 0.00575243 0.00458157 0.00708982 0.00575243 0.00673111 0.00708982 0.0065142 0.00673111 0.00663054 0.0065142 0.00681355 0.00663054 0.006807 0.00681355 0.00688167 0.006807 0.00690312 0.00688167 0.00699922 0.00690312 0.00701075 0.00699922 0.00709444 0.00701075 0.00710648 0.00709444 0.00718593 0.00710648 0.00719629 0.00718593 0.00726898 0.00719629 0.00727855 0.00726898 0.00734463 0.00727855 0.00735341 0.00734463 0.00741234 0.00735341 0.00742052 0.00741234 0.00747191 0.00742052 0.0074796 0.00747191 0.00752302 0.0074796 0.0075303 0.00752302 0.00756534 0.0075303 0.00757232 0.00756534 0.00759861 0.00757232 0.00760535 0.00759861 0.00762256 0.00760535 0.00762914 0.00762256 0.00763701 0.00762914 0.00764349 0.00763701 0.00764184 0.00764349 0.00764829 0.00764829 0.00764349 0.00765895 0.0076542 0.00764349 0.00762914 0.0076542 0.00764 0.00762914 0.00760535 0.00764 0.00761649 0.00760535 0.00757232 0.00761649 0.00758384 0.00757232 0.0075303 0.00758384 0.00754233 0.0075303 0.0074796 0.00754233 0.00749228 0.0074796 0.00742052 0.00749228 0.00743401 0.00742052 0.00735341 0.00743401 0.00736788 0.00735341 0.00727855 0.00736788 0.00729424 0.00727855 0.00719629 0.00729424 0.00721337 0.00719629 0.00710648 0.00721337 0.0071258 0.00710648 0.00701075 0.0071258 0.00703076 0.00701075 0.00690312 0.00703076 0.00693254 0.00690312 0.006807 0.00693254 0.00681549 0.006807 0.00663054 0.00681549 0.00674228 0.00663054 0.00673111 0.00674228 0.00647401 0.00673111 0.00575243 0.00647401 0.00695363 0.00575243 0.00876279 0.00695363 0.00478251 0.00876279 0.264735 0.00478251 0.0952328 0.264735 0.688228 0.0952328 0.423137 0.688228 0.991198 0.423137 0.78239 0.991198 0.9963 0.78239 0.990511 0.9963 0.99501 0.990511 0.996116 0.99501 0.995541 0.996116 0.996141 0.995541 0.995692 0.996141 0.995827 0.995692 0.995541 0.995827 0.996141 0.995541 0.99501 0.996141 0.996116 0.99501 0.9963 0.996116 0.990511 0.9963 0.991198 0.990511 0.78239 0.991198 0.688228 0.78239 0.423137 0.688228 0.264735 0.423137 0.0952328 0.264735 0.00876279 0.0952328 0.00478251 0.00876279 0.00575243 0.00478251 0.00695363 0.00575243 0.00673111 0.00695363 0.00647401 0.00673111 0.00663054 0.00647401 0.00674228 0.00663054 0.006807 0.00674228 0.00681549 0.006807 0.00690312 0.00681549 0.00693254 0.00690312 0.00701075 0.00693254 0.00703076 0.00701075 0.00710648 0.00703076 0.0071258 0.00710648 0.00719629 0.0071258 0.00721337 0.00719629 0.00727855 0.00721337 0.00729424 0.00727855 0.00735341 0.00729424 0.00736788 0.00735341 0.00742052 0.00736788 0.00743401 0.00742052 0.0074796 0.00743401 0.00749228 0.0074796 0.0075303 0.00749228 0.00754233 0.0075303 0.00757232 0.00754233 0.00758384 0.00757232 0.00760535 0.00758384 0.00761649 0.00760535 0.00762914 0.00761649 0.00764 0.00762914 0.00764349 0.00764 0.0076542 0.00764349 0.00764829 0.0076542 0.00765895 0.00765895 0.0076542 0.00767367 0.007669 0.0076542 0.00764 0.007669 0.00765502 0.00764 0.00761649 0.00765502 0.00763187 0.00761649 0.00758384 0.00763187 0.00759975 0.00758384 0.00754233 0.00759975 0.00755893 0.00754233 0.00749228 0.00755893 0.00750975 0.00749228 0.00743401 0.00750975 0.00745257 0.00743401 0.00736788 0.00745257 0.00738776 0.00736788 0.00729424 0.00738776 0.00731573 0.00729424 0.00721337 0.00731573 0.00723684 0.00721337 0.0071258 0.00723684 0.00715151 0.0071258 0.00703076 0.00715151 0.00705998 0.00703076 0.00693254 0.00705998 0.00696314 0.00693254 0.00681549 0.00696314 0.00685956 0.00681549 0.00674228 0.00685956 0.00675766 0.00674228 0.00647401 0.00675766 0.0066286 0.00647401 0.00695363 0.0066286 0.00659104 0.00695363 0.00478251 0.00659104 0.0061634 0.00478251 0.0952328 0.0061634 0.00523111 0.0952328 0.423137 0.00523111 0.140959 0.423137 0.78239 0.140959 0.416487 0.78239 0.990511 0.416487 0.682799 0.990511 0.996116 0.682799 0.867211 0.996116 0.996141 0.867211 0.962099 0.996141 0.995827 0.962099 0.987889 0.995827 0.996141 0.987889 0.962099 0.996141 0.996116 0.962099 0.867211 0.996116 0.990511 0.867211 0.682799 0.990511 0.78239 0.682799 0.416487 0.78239 0.423137 0.416487 0.140959 0.423137 0.0952328 0.140959 0.00523111 0.0952328 0.00478251 0.00523111 0.0061634 0.00478251 0.00695363 0.0061634 0.00659104 0.00695363 0.00647401 0.00659104 0.0066286 0.00647401 0.00674228 0.0066286 0.00675766 0.00674228 0.00681549 0.00675766 0.00685956 0.00681549 0.00693254 0.00685956 0.00696314 0.00693254 0.00703076 0.00696314 0.00705998 0.00703076 0.0071258 0.00705998 0.00715151 0.0071258 0.00721337 0.00715151 0.00723684 0.00721337 0.00729424 0.00723684 0.00731573 0.00729424 0.00736788 0.00731573 0.00738776 0.00736788 0.00743401 0.00738776 0.00745257 0.00743401 0.00749228 0.00745257 0.00750975 0.00749228 0.00754233 0.00750975 0.00755893 0.00754233 0.00758384 0.00755893 0.00759975 0.00758384 0.00761649 0.00759975 0.00763187 0.00761649 0.00764 0.00763187 0.00765502 0.00764 0.0076542 0.00765502 0.007669 0.0076542 0.00765895 0.007669 0.00767367 0.00767367 0.007669 0.00769228 0.0076877 0.007669 0.00765502 0.0076877 0.00767399 0.00765502 0.00763187 0.00767399 0.00765129 0.00763187 0.00759975 0.00765129 0.00761982 0.00759975 0.00755893 0.00761982 0.00757986 0.00755893 0.00750975 0.00757986 0.00753176 0.00750975 0.00745257 0.00753176 0.0074759 0.00745257 0.00738776 0.0074759 0.00741272 0.00738776 0.00731573 0.00741272 0.00734262 0.00731573 0.00723684 0.00734262 0.00726608 0.00723684 0.00715151 0.00726608 0.00718351 0.00715151 0.00705998 0.00718351 0.00709548 0.00705998 0.00696314 0.00709548 0.00700212 0.00696314 0.00685956 0.00700212 0.00690556 0.00685956 0.00675766 0.00690556 0.00680046 0.00675766 0.0066286 0.00680046 0.00671114 0.0066286 0.00659104 0.00671114 0.00654493 0.00659104 0.0061634 0.00654493 0.00667179 0.0061634 0.00523111 0.00667179 0.00622206 0.00523111 0.140959 0.00622206 0.00490614 0.140959 0.416487 0.00490614 0.0861478 0.416487 0.682799 0.0861478 0.260886 0.682799 0.867211 0.260886 0.428703 0.867211 0.962099 0.428703 0.545376 0.962099 0.987889 0.545376 0.58695 0.987889 0.962099 0.58695 0.545376 0.962099 0.867211 0.545376 0.428703 0.867211 0.682799 0.428703 0.260886 0.682799 0.416487 0.260886 0.0861478 0.416487 0.140959 0.0861478 0.00490614 0.140959 0.00523111 0.00490614 0.00622206 0.00523111 0.0061634 0.00622206 0.00667179 0.0061634 0.00659104 0.00667179 0.00654493 0.00659104 0.0066286 0.00654493 0.00671114 0.0066286 0.00675766 0.00671114 0.00680046 0.00675766 0.00685956 0.00680046 0.00690556 0.00685956 0.00696314 0.00690556 0.00700212 0.00696314 0.00705998 0.00700212 0.00709548 0.00705998 0.00715151 0.00709548 0.00718351 0.00715151 0.00723684 0.00718351 0.00726608 0.00723684 0.00731573 0.00726608 0.00734262 0.00731573 0.00738776 0.00734262 0.00741272 0.00738776 0.00745257 0.00741272 0.0074759 0.00745257 0.00750975 0.0074759 0.00753176 0.00750975 0.00755893 0.00753176 0.00757986 0.00755893 0.00759975 0.00757986 0.00761982 0.00759975 0.00763187 0.00761982 0.00765129 0.00763187 0.00765502 0.00765129 0.00767399 0.00765502 0.007669 0.00767399 0.0076877 0.007669 0.00767367 0.0076877 0.00769228 0.00769228 0.0076877 0.00771454 0.00771006 0.0076877 0.00767399 0.00771006 0.00769666 0.00767399 0.00765129 0.00769666 0.00767449 0.00765129 0.00761982 0.00767449 0.00764378 0.00761982 0.00757986 0.00764378 0.00760481 0.00757986 0.00753176 0.00760481 0.00755797 0.00753176 0.0074759 0.00755797 0.00750365 0.0074759 0.00741272 0.00750365 0.00744231 0.00741272 0.00734262 0.00744231 0.00737443 0.00734262 0.00726608 0.00737443 0.0073005 0.00726608 0.00718351 0.0073005 0.00722106 0.00718351 0.00709548 0.00722106 0.00713659 0.00709548 0.00700212 0.00713659 0.00704786 0.00700212 0.00690556 0.00704786 0.00695478 0.00690556 0.00680046 0.00695478 0.00686094 0.00680046 0.00671114 0.00686094 0.00675558 0.00671114 0.00654493 0.00675558 0.00668446 0.00654493 0.00667179 0.00668446 0.00647334 0.00667179 0.00622206 0.00647334 0.00665897 0.00622206 0.00490614 0.00665897 0.00615399 0.00490614 0.0861478 0.00615399 0.00459931 0.0861478 0.260886 0.00459931 0.00799585 0.260886 0.428703 0.00799585 0.0527164 0.428703 0.545376 0.0527164 0.11661 0.545376 0.58695 0.11661 0.142502 0.58695 0.545376 0.142502 0.11661 0.545376 0.428703 0.11661 0.0527164 0.428703 0.260886 0.0527164 0.00799585 0.260886 0.0861478 0.00799585 0.00459931 0.0861478 0.00490614 0.00459931 0.00615399 0.00490614 0.00622206 0.00615399 0.00665897 0.00622206 0.00667179 0.00665897 0.00647334 0.00667179 0.00654493 0.00647334 0.00668446 0.00654493 0.00671114 0.00668446 0.00675558 0.00671114 0.00680046 0.00675558 0.00686094 0.00680046 0.00690556 0.00686094 0.00695478 0.00690556 0.00700212 0.00695478 0.00704786 0.00700212 0.00709548 0.00704786 0.00713659 0.00709548 0.00718351 0.00713659 0.00722106 0.00718351 0.00726608 0.00722106 0.0073005 0.00726608 0.00734262 0.0073005 0.00737443 0.00734262 0.00741272 0.00737443 0.00744231 0.00741272 0.0074759 0.00744231 0.00750365 0.0074759 0.00753176 0.00750365 0.00755797 0.00753176 0.00757986 0.00755797 0.00760481 0.00757986 0.00761982 0.00760481 0.00764378 0.00761982 0.00765129 0.00764378 0.00767449 0.00765129 0.00767399 0.00767449 0.00769666 0.00767399 0.0076877 0.00769666 0.00771006 0.0076877 0.00769228 0.00771006 0.00771454 0.00771454 0.00771006 0.00774014 0.00773578 0.00771006 0.00769666 0.00773578 0.00772274 0.00769666 0.00767449 0.00772274 0.00770117 0.00767449 0.00764378 0.00770117 0.00767129 0.00764378 0.00760481 0.00767129 0.00763344 0.00760481 0.00755797 0.00763344 0.00758799 0.00755797 0.00750365 0.00758799 0.00753537 0.00750365 0.00744231 0.00753537 0.00747607 0.00744231 0.00737443 0.00747607 0.0074106 0.00737443 0.0073005 0.0074106 0.00733951 0.0073005 0.00722106 0.00733951 0.00726336 0.00722106 0.00713659 0.00726336 0.00718276 0.00713659 0.00704786 0.00718276 0.0070983 0.00704786 0.00695478 0.0070983 0.00701084 0.00695478 0.00686094 0.00701084 0.00692036 0.00686094 0.00675558 0.00692036 0.0068305 0.00675558 0.00668446 0.0068305 0.00673089 0.00668446 0.00647334 0.00673089 0.00666567 0.00647334 0.00665897 0.00666567 0.0065039 0.00665897 0.00615399 0.0065039 0.00649921 0.00615399 0.00459931 0.00649921 0.00692073 0.00459931 0.00799585 0.00692073 0.00562955 0.00799585 0.0527164 0.00562955 0.00432466 0.0527164 0.11661 0.00432466 0.00495298 0.11661 0.142502 0.00495298 0.00522512 0.142502 0.11661 0.00522512 0.00495298 0.11661 0.0527164 0.00495298 0.00432466 0.0527164 0.00799585 0.00432466 0.00562955 0.00799585 0.00459931 0.00562955 0.00692073 0.00459931 0.00615399 0.00692073 0.00649921 0.00615399 0.00665897 0.00649921 0.0065039 0.00665897 0.00647334 0.0065039 0.00666567 0.00647334 0.00668446 0.00666567 0.00673089 0.00668446 0.00675558 0.00673089 0.0068305 0.00675558 0.00686094 0.0068305 0.00692036 0.00686094 0.00695478 0.00692036 0.00701084 0.00695478 0.00704786 0.00701084 0.0070983 0.00704786 0.00713659 0.0070983 0.00718276 0.00713659 0.00722106 0.00718276 0.00726336 0.00722106 0.0073005 0.00726336 0.00733951 0.0073005 0.00737443 0.00733951 0.0074106 0.00737443 0.00744231 0.0074106 0.00747607 0.00744231 0.00750365 0.00747607 0.00753537 0.00750365 0.00755797 0.00753537 0.00758799 0.00755797 0.00760481 0.00758799 0.00763344 0.00760481 0.00764378 0.00763344 0.00767129 0.00764378 0.00767449 0.00767129 0.00770117 0.00767449 0.00769666 0.00770117 0.00772274 0.00769666 0.00771006 0.00772274 0.00773578 0.00771006 0.00771454 0.00773578 0.00774014 0.00774014 0.00773578 0.00776876 0.00776453 0.00773578 0.00772274 0.00776453 0.00775187 0.00772274 0.00770117 0.00775187 0.00773094 0.00770117 0.00767129 0.00773094 0.00770199 0.00767129 0.00763344 0.00770199 0.00766533 0.00763344 0.00758799 0.00766533 0.00762138 0.00758799 0.00753537 0.00762138 0.00757058 0.00753537 0.00747607 0.00757058 0.00751345 0.00747607 0.0074106 0.00751345 0.00745054 0.0074106 0.00733951 0.00745054 0.00738242 0.00733951 0.00726336 0.00738242 0.0073097 0.00726336 0.00718276 0.0073097 0.00723303 0.00718276 0.0070983 0.00723303 0.00715309 0.0070983 0.00701084 0.00715309 0.00707054 0.00701084 0.00692036 0.00707054 0.00698634 0.00692036 0.0068305 0.00698634 0.00690053 0.0068305 0.00673089 0.00690053 0.00681682 0.00673089 0.00666567 0.00681682 0.00672493 0.00666567 0.0065039 0.00672493 0.00665949 0.0065039 0.00649921 0.00665949 0.00655844 0.00649921 0.00692073 0.00655844 0.00635351 0.00692073 0.00562955 0.00635351 0.00659318 0.00562955 0.00432466 0.00659318 0.0069653 0.00432466 0.00495298 0.0069653 0.00668781 0.00495298 0.00522512 0.00668781 0.0065799 0.00522512 0.00495298 0.0065799 0.00668781 0.00495298 0.00432466 0.00668781 0.0069653 0.00432466 0.00562955 0.0069653 0.00659318 0.00562955 0.00692073 0.00659318 0.00635351 0.00692073 0.00649921 0.00635351 0.00655844 0.00649921 0.0065039 0.00655844 0.00665949 0.0065039 0.00666567 0.00665949 0.00672493 0.00666567 0.00673089 0.00672493 0.00681682 0.00673089 0.0068305 0.00681682 0.00690053 0.0068305 0.00692036 0.00690053 0.00698634 0.00692036 0.00701084 0.00698634 0.00707054 0.00701084 0.0070983 0.00707054 0.00715309 0.0070983 0.00718276 0.00715309 0.00723303 0.00718276 0.00726336 0.00723303 0.0073097 0.00726336 0.00733951 0.0073097 0.00738242 0.00733951 0.0074106 0.00738242 0.00745054 0.0074106 0.00747607 0.00745054 0.00751345 0.00747607 0.00753537 0.00751345 0.00757058 0.00753537 0.00758799 0.00757058 0.00762138 0.00758799 0.00763344 0.00762138 0.00766533 0.00763344 0.00767129 0.00766533 0.00770199 0.00767129 0.00770117 0.00770199 0.00773094 0.00770117 0.00772274 0.00773094 0.00775187 0.00772274 0.00773578 0.00775187 0.00776453 0.00773578 0.00774014 0.00776453 0.00776876 0.00776876 0.00776453 0.00780002 0.00779592 0.00776453 0.00775187 0.00779592 0.00778366 0.00775187 0.00773094 0.00778366 0.00776342 0.00773094 0.00770199 0.00776342 0.00773543 0.00770199 0.00766533 0.00773543 0.00770004 0.00766533 0.00762138 0.00770004 0.00765766 0.00762138 0.00757058 0.00765766 0.00760876 0.00757058 0.00751345 0.00760876 0.00755389 0.00751345 0.00745054 0.00755389 0.0074936 0.00745054 0.00738242 0.0074936 0.00742853 0.00738242 0.0073097 0.00742853 0.0073593 0.0073097 0.00723303 0.0073593 0.00728659 0.00723303 0.00715309 0.00728659 0.00721111 0.00715309 0.00707054 0.00721111 0.00713361 0.00707054 0.00698634 0.00713361 0.00705483 0.00698634 0.00690053 0.00705483 0.0069758 0.00690053 0.00681682 0.0069758 0.00689665 0.00681682 0.00672493 0.00689665 0.00682124 0.00672493 0.00665949 0.00682124 0.00674213 0.00665949 0.00655844 0.00674213 0.00667661 0.00655844 0.00635351 0.00667661 0.00664437 0.00635351 0.00659318 0.00664437 0.00650584 0.00659318 0.0069653 0.00650584 0.00635661 0.0069653 0.00668781 0.00635661 0.00638514 0.00668781 0.0065799 0.00638514 0.00639867 0.0065799 0.00668781 0.00639867 0.00638514 0.00668781 0.0069653 0.00638514 0.00635661 0.0069653 0.00659318 0.00635661 0.00650584 0.00659318 0.00635351 0.00650584 0.00664437 0.00635351 0.00655844 0.00664437 0.00667661 0.00655844 0.00665949 0.00667661 0.00674213 0.00665949 0.00672493 0.00674213 0.00682124 0.00672493 0.00681682 0.00682124 0.00689665 0.00681682 0.00690053 0.00689665 0.0069758 0.00690053 0.00698634 0.0069758 0.00705483 0.00698634 0.00707054 0.00705483 0.00713361 0.00707054 0.00715309 0.00713361 0.00721111 0.00715309 0.00723303 0.00721111 0.00728659 0.00723303 0.0073097 0.00728659 0.0073593 0.0073097 0.00738242 0.0073593 0.00742853 0.00738242 0.00745054 0.00742853 0.0074936 0.00745054 0.00751345 0.0074936 0.00755389 0.00751345 0.00757058 0.00755389 0.00760876 0.00757058 0.00762138 0.00760876 0.00765766 0.00762138 0.00766533 0.00765766 0.00770004 0.00766533 0.00770199 0.00770004 0.00773543 0.00770199 0.00773094 0.00773543 0.00776342 0.00773094 0.00775187 0.00776342 0.00778366 0.00775187 0.00776453 0.00778366 0.00779592 0.00776453 0.00776876 0.00779592 0.00780002 0.00780002 0.00779592 0.00783347 0.00782951 0.00779592 0.00778366 0.00782951 0.00781768 0.00778366 0.00776342 0.00781768 0.00779814 0.00776342 0.00773543 0.00779814 0.00777115 0.00773543 0.00770004 0.00777115 0.00773706 0.00770004 0.00765766 0.00773706 0.00769629 0.00765766 0.00760876 0.00769629 0.00764934 0.00760876 0.00755389 0.00764934 0.00759676 0.00755389 0.0074936 0.00759676 0.00753914 0.0074936 0.00742853 0.00753914 0.00747712 0.00742853 0.0073593 0.00747712 0.00741136 0.0073593 0.00728659 0.00741136 0.00734257 0.00728659 0.00721111 0.00734257 0.00727147 0.00721111 0.00713361 0.00727147 0.00719884 0.00713361 0.00705483 0.00719884 0.00712548 0.00705483 0.0069758 0.00712548 0.0070522 0.0069758 0.00689665 0.0070522 0.00698013 0.00689665 0.00682124 0.00698013 0.00690953 0.00682124 0.00674213 0.00690953 0.00684371 0.00674213 0.00667661 0.00684371 0.00677982 0.00667661 0.00664437 0.00677982 0.00671485 0.00664437 0.00650584 0.00671485 0.