# vtk DataFile Version 3.0
#This file was generated by the deal.II library on 2023/1/15 at 19:10:31
ASCII
DATASET UNSTRUCTURED_GRID

POINTS 5000 double
0 0 0
0.04 0 0
0 0.04 0
0.04 0.04 0
0.04 0 0
0.08 0 0
0.04 0.04 0
0.08 0.04 0
0.08 0 0
0.12 0 0
0.08 0.04 0
0.12 0.04 0
0.12 0 0
0.16 0 0
0.12 0.04 0
0.16 0.04 0
0.16 0 0
0.2 0 0
0.16 0.04 0
0.2 0.04 0
0.2 0 0
0.24 0 0
0.2 0.04 0
0.24 0.04 0
0.24 0 0
0.28 0 0
0.24 0.04 0
0.28 0.04 0
0.28 0 0
0.32 0 0
0.28 0.04 0
0.32 0.04 0
0.32 0 0
0.36 0 0
0.32 0.04 0
0.36 0.04 0
0.36 0 0
0.4 0 0
0.36 0.04 0
0.4 0.04 0
0.4 0 0
0.44 0 0
0.4 0.04 0
0.44 0.04 0
0.44 0 0
0.48 0 0
0.44 0.04 0
0.48 0.04 0
0.48 0 0
0.52 0 0
0.48 0.04 0
0.52 0.04 0
0.52 0 0
0.56 0 0
0.52 0.04 0
0.56 0.04 0
0.56 0 0
0.6 0 0
0.56 0.04 0
0.6 0.04 0
0.6 0 0
0.64 0 0
0.6 0.04 0
0.64 0.04 0
0.64 0 0
0.68 0 0
0.64 0.04 0
0.68 0.04 0
0.68 0 0
0.72 0 0
0.68 0.04 0
0.72 0.04 0
0.72 0 0
0.76 0 0
0.72 0.04 0
0.76 0.04 0
0.76 0 0
0.8 0 0
0.76 0.04 0
0.8 0.04 0
0.8 0 0
0.84 0 0
0.8 0.04 0
0.84 0.04 0
0.84 0 0
0.88 0 0
0.84 0.04 0
0.88 0.04 0
0.88 0 0
0.92 0 0
0.88 0.04 0
0.92 0.04 0
0.92 0 0
0.96 0 0
0.92 0.04 0
0.96 0.04 0
0.96 0 0
1 0 0
0.96 0.04 0
1 0.04 0
1 0 0
1.04 0 0
1 0.04 0
1.04 0.04 0
1.04 0 0
1.08 0 0
1.04 0.04 0
1.08 0.04 0
1.08 0 0
1.12 0 0
1.08 0.04 0
1.12 0.04 0
1.12 0 0
1.16 0 0
1.12 0.04 0
1.16 0.04 0
1.16 0 0
1.2 0 0
1.16 0.04 0
1.2 0.04 0
1.2 0 0
1.24 0 0
1.2 0.04 0
1.24 0.04 0
1.24 0 0
1.28 0 0
1.24 0.04 0
1.28 0.04 0
1.28 0 0
1.32 0 0
1.28 0.04 0
1.32 0.04 0
1.32 0 0
1.36 0 0
1.32 0.04 0
1.36 0.04 0
1.36 0 0
1.4 0 0
1.36 0.04 0
1.4 0.04 0
1.4 0 0
1.44 0 0
1.4 0.04 0
1.44 0.04 0
1.44 0 0
1.48 0 0
1.44 0.04 0
1.48 0.04 0
1.48 0 0
1.52 0 0
1.48 0.04 0
1.52 0.04 0
1.52 0 0
1.56 0 0
1.52 0.04 0
1.56 0.04 0
1.56 0 0
1.6 0 0
1.56 0.04 0
1.6 0.04 0
1.6 0 0
1.64 0 0
1.6 0.04 0
1.64 0.04 0
1.64 0 0
1.68 0 0
1.64 0.04 0
1.68 0.04 0
1.68 0 0
1.72 0 0
1.68 0.04 0
1.72 0.04 0
1.72 0 0
1.76 0 0
1.72 0.04 0
1.76 0.04 0
1.76 0 0
1.8 0 0
1.76 0.04 0
1.8 0.04 0
1.8 0 0
1.84 0 0
1.8 0.04 0
1.84 0.04 0
1.84 0 0
1.88 0 0
1.84 0.04 0
1.88 0.04 0
1.88 0 0
1.92 0 0
1.88 0.04 0
1.92 0.04 0
1.92 0 0
1.96 0 0
1.92 0.04 0
1.96 0.04 0
1.96 0 0
2 0 0
1.96 0.04 0
2 0.04 0
0 0.04 0
0.04 0.04 0
0 0.08 0
0.04 0.08 0
0.04 0.04 0
0.08 0.04 0
0.04 0.08 0
0.08 0.08 0
0.08 0.04 0
0.12 0.04 0
0.08 0.08 0
0.12 0.08 0
0.12 0.04 0
0.16 0.04 0
0.12 0.08 0
0.16 0.08 0
0.16 0.04 0
0.2 0.04 0
0.16 0.08 0
0.2 0.08 0
0.2 0.04 0
0.24 0.04 0
0.2 0.08 0
0.24 0.08 0
0.24 0.04 0
0.28 0.04 0
0.24 0.08 0
0.28 0.08 0
0.28 0.04 0
0.32 0.04 0
0.28 0.08 0
0.32 0.08 0
0.32 0.04 0
0.36 0.04 0
0.32 0.08 0
0.36 0.08 0
0.36 0.04 0
0.4 0.04 0
0.36 0.08 0
0.4 0.08 0
0.4 0.04 0
0.44 0.04 0
0.4 0.08 0
0.44 0.08 0
0.44 0.04 0
0.48 0.04 0
0.44 0.08 0
0.48 0.08 0
0.48 0.04 0
0.52 0.04 0
0.48 0.08 0
0.52 0.08 0
0.52 0.04 0
0.56 0.04 0
0.52 0.08 0
0.56 0.08 0
0.56 0.04 0
0.6 0.04 0
0.56 0.08 0
0.6 0.08 0
0.6 0.04 0
0.64 0.04 0
0.6 0.08 0
0.64 0.08 0
0.64 0.04 0
0.68 0.04 0
0.64 0.08 0
0.68 0.08 0
0.68 0.04 0
0.72 0.04 0
0.68 0.08 0
0.72 0.08 0
0.72 0.04 0
0.76 0.04 0
0.72 0.08 0
0.76 0.08 0
0.76 0.04 0
0.8 0.04 0
0.76 0.08 0
0.8 0.08 0
0.8 0.04 0
0.84 0.04 0
0.8 0.08 0
0.84 0.08 0
0.84 0.04 0
0.88 0.04 0
0.84 0.08 0
0.88 0.08 0
0.88 0.04 0
0.92 0.04 0
0.88 0.08 0
0.92 0.08 0
0.92 0.04 0
0.96 0.04 0
0.92 0.08 0
0.96 0.08 0
0.96 0.04 0
1 0.04 0
0.96 0.08 0
1 0.08 0
1 0.04 0
1.04 0.04 0
1 0.08 0
1.04 0.08 0
1.04 0.04 0
1.08 0.04 0
1.04 0.08 0
1.08 0.08 0
1.08 0.04 0
1.12 0.04 0
1.08 0.08 0
1.12 0.08 0
1.12 0.04 0
1.16 0.04 0
1.12 0.08 0
1.16 0.08 0
1.16 0.04 0
1.2 0.04 0
1.16 0.08 0
1.2 0.08 0
1.2 0.04 0
1.24 0.04 0
1.2 0.08 0
1.24 0.08 0
1.24 0.04 0
1.28 0.04 0
1.24 0.08 0
1.28 0.08 0
1.28 0.04 0
1.32 0.04 0
1.28 0.08 0
1.32 0.08 0
1.32 0.04 0
1.36 0.04 0
1.32 0.08 0
1.36 0.08 0
1.36 0.04 0
1.4 0.04 0
1.36 0.08 0
1.4 0.08 0
1.4 0.04 0
1.44 0.04 0
1.4 0.08 0
1.44 0.08 0
1.44 0.04 0
1.48 0.04 0
1.44 0.08 0
1.48 0.08 0
1.48 0.04 0
1.52 0.04 0
1.48 0.08 0
1.52 0.08 0
1.52 0.04 0
1.56 0.04 0
1.52 0.08 0
1.56 0.08 0
1.56 0.04 0
1.6 0.04 0
1.56 0.08 0
1.6 0.08 0
1.6 0.04 0
1.64 0.04 0
1.6 0.08 0
1.64 0.08 0
1.64 0.04 0
1.68 0.04 0
1.64 0.08 0
1.68 0.08 0
1.68 0.04 0
1.72 0.04 0
1.68 0.08 0
1.72 0.08 0
1.72 0.04 0
1.76 0.04 0
1.72 0.08 0
1.76 0.08 0
1.76 0.04 0
1.8 0.04 0
1.76 0.08 0
1.8 0.08 0
1.8 0.04 0
1.84 0.04 0
1.8 0.08 0
1.84 0.08 0
1.84 0.04 0
1.88 0.04 0
1.84 0.08 0
1.88 0.08 0
1.88 0.04 0
1.92 0.04 0
1.88 0.08 0
1.92 0.08 0
1.92 0.04 0
1.96 0.04 0
1.92 0.08 0
1.96 0.08 0
1.96 0.04 0
2 0.04 0
1.96 0.08 0
2 0.08 0
0 0.08 0
0.04 0.08 0
0 0.12 0
0.04 0.12 0
0.04 0.08 0
0.08 0.08 0
0.04 0.12 0
0.08 0.12 0
0.08 0.08 0
0.12 0.08 0
0.08 0.12 0
0.12 0.12 0
0.12 0.08 0
0.16 0.08 0
0.12 0.12 0
0.16 0.12 0
0.16 0.08 0
0.2 0.08 0
0.16 0.12 0
0.2 0.12 0
0.2 0.08 0
0.24 0.08 0
0.2 0.12 0
0.24 0.12 0
0.24 0.08 0
0.28 0.08 0
0.24 0.12 0
0.28 0.12 0
0.28 0.08 0
0.32 0.08 0
0.28 0.12 0
0.32 0.12 0
0.32 0.08 0
0.36 0.08 0
0.32 0.12 0
0.36 0.12 0
0.36 0.08 0
0.4 0.08 0
0.36 0.12 0
0.4 0.12 0
0.4 0.08 0
0.44 0.08 0
0.4 0.12 0
0.44 0.12 0
0.44 0.08 0
0.48 0.08 0
0.44 0.12 0
0.48 0.12 0
0.48 0.08 0
0.52 0.08 0
0.48 0.12 0
0.52 0.12 0
0.52 0.08 0
0.56 0.08 0
0.52 0.12 0
0.56 0.12 0
0.56 0.08 0
0.6 0.08 0
0.56 0.12 0
0.6 0.12 0
0.6 0.08 0
0.64 0.08 0
0.6 0.12 0
0.64 0.12 0
0.64 0.08 0
0.68 0.08 0
0.64 0.12 0
0.68 0.12 0
0.68 0.08 0
0.72 0.08 0
0.68 0.12 0
0.72 0.12 0
0.72 0.08 0
0.76 0.08 0
0.72 0.12 0
0.76 0.12 0
0.76 0.08 0
0.8 0.08 0
0.76 0.12 0
0.8 0.12 0
0.8 0.08 0
0.84 0.08 0
0.8 0.12 0
0.84 0.12 0
0.84 0.08 0
0.88 0.08 0
0.84 0.12 0
0.88 0.12 0
0.88 0.08 0
0.92 0.08 0
0.88 0.12 0
0.92 0.12 0
0.92 0.08 0
0.96 0.08 0
0.92 0.12 0
0.96 0.12 0
0.96 0.08 0
1 0.08 0
0.96 0.12 0
1 0.12 0
1 0.08 0
1.04 0.08 0
1 0.12 0
1.04 0.12 0
1.04 0.08 0
1.08 0.08 0
1.04 0.12 0
1.08 0.12 0
1.08 0.08 0
1.12 0.08 0
1.08 0.12 0
1.12 0.12 0
1.12 0.08 0
1.16 0.08 0
1.12 0.12 0
1.16 0.12 0
1.16 0.08 0
1.2 0.08 0
1.16 0.12 0
1.2 0.12 0
1.2 0.08 0
1.24 0.08 0
1.2 0.12 0
1.24 0.12 0
1.24 0.08 0
1.28 0.08 0
1.24 0.12 0
1.28 0.12 0
1.28 0.08 0
1.32 0.08 0
1.28 0.12 0
1.32 0.12 0
1.32 0.08 0
1.36 0.08 0
1.32 0.12 0
1.36 0.12 0
1.36 0.08 0
1.4 0.08 0
1.36 0.12 0
1.4 0.12 0
1.4 0.08 0
1.44 0.08 0
1.4 0.12 0
1.44 0.12 0
1.44 0.08 0
1.48 0.08 0
1.44 0.12 0
1.48 0.12 0
1.48 0.08 0
1.52 0.08 0
1.48 0.12 0
1.52 0.12 0
1.52 0.08 0
1.56 0.08 0
1.52 0.12 0
1.56 0.12 0
1.56 0.08 0
1.6 0.08 0
1.56 0.12 0
1.6 0.12 0
1.6 0.08 0
1.64 0.08 0
1.6 0.12 0
1.64 0.12 0
1.64 0.08 0
1.68 0.08 0
1.64 0.12 0
1.68 0.12 0
1.68 0.08 0
1.72 0.08 0
1.68 0.12 0
1.72 0.12 0
1.72 0.08 0
1.76 0.08 0
1.72 0.12 0
1.76 0.12 0
1.76 0.08 0
1.8 0.08 0
1.76 0.12 0
1.8 0.12 0
1.8 0.08 0
1.84 0.08 0
1.8 0.12 0
1.84 0.12 0
1.84 0.08 0
1.88 0.08 0
1.84 0.12 0
1.88 0.12 0
1.88 0.08 0
1.92 0.08 0
1.88 0.12 0
1.92 0.12 0
1.92 0.08 0
1.96 0.08 0
1.92 0.12 0
1.96 0.12 0
1.96 0.08 0
2 0.08 0
1.96 0.12 0
2 0.12 0
0 0.12 0
0.04 0.12 0
0 0.16 0
0.04 0.16 0
0.04 0.12 0
0.08 0.12 0
0.04 0.16 0
0.08 0.16 0
0.08 0.12 0
0.12 0.12 0
0.08 0.16 0
0.12 0.16 0
0.12 0.12 0
0.16 0.12 0
0.12 0.16 0
0.16 0.16 0
0.16 0.12 0
0.2 0.12 0
0.16 0.16 0
0.2 0.16 0
0.2 0.12 0
0.24 0.12 0
0.2 0.16 0
0.24 0.16 0
0.24 0.12 0
0.28 0.12 0
0.24 0.16 0
0.28 0.16 0
0.28 0.12 0
0.32 0.12 0
0.28 0.16 0
0.32 0.16 0
0.32 0.12 0
0.36 0.12 0
0.32 0.16 0
0.36 0.16 0
0.36 0.12 0
0.4 0.12 0
0.36 0.16 0
0.4 0.16 0
0.4 0.12 0
0.44 0.12 0
0.4 0.16 0
0.44 0.16 0
0.44 0.12 0
0.48 0.12 0
0.44 0.16 0
0.48 0.16 0
0.48 0.12 0
0.52 0.12 0
0.48 0.16 0
0.52 0.16 0
0.52 0.12 0
0.56 0.12 0
0.52 0.16 0
0.56 0.16 0
0.56 0.12 0
0.6 0.12 0
0.56 0.16 0
0.6 0.16 0
0.6 0.12 0
0.64 0.12 0
0.6 0.16 0
0.64 0.16 0
0.64 0.12 0
0.68 0.12 0
0.64 0.16 0
0.68 0.16 0
0.68 0.12 0
0.72 0.12 0
0.68 0.16 0
0.72 0.16 0
0.72 0.12 0
0.76 0.12 0
0.72 0.16 0
0.76 0.16 0
0.76 0.12 0
0.8 0.12 0
0.76 0.16 0
0.8 0.16 0
0.8 0.12 0
0.84 0.12 0
0.8 0.16 0
0.84 0.16 0
0.84 0.12 0
0.88 0.12 0
0.84 0.16 0
0.88 0.16 0
0.88 0.12 0
0.92 0.12 0
0.88 0.16 0
0.92 0.16 0
0.92 0.12 0
0.96 0.12 0
0.92 0.16 0
0.96 0.16 0
0.96 0.12 0
1 0.12 0
0.96 0.16 0
1 0.16 0
1 0.12 0
1.04 0.12 0
1 0.16 0
1.04 0.16 0
1.04 0.12 0
1.08 0.12 0
1.04 0.16 0
1.08 0.16 0
1.08 0.12 0
1.12 0.12 0
1.08 0.16 0
1.12 0.16 0
1.12 0.12 0
1.16 0.12 0
1.12 0.16 0
1.16 0.16 0
1.16 0.12 0
1.2 0.12 0
1.16 0.16 0
1.2 0.16 0
1.2 0.12 0
1.24 0.12 0
1.2 0.16 0
1.24 0.16 0
1.24 0.12 0
1.28 0.12 0
1.24 0.16 0
1.28 0.16 0
1.28 0.12 0
1.32 0.12 0
1.28 0.16 0
1.32 0.16 0
1.32 0.12 0
1.36 0.12 0
1.32 0.16 0
1.36 0.16 0
1.36 0.12 0
1.4 0.12 0
1.36 0.16 0
1.4 0.16 0
1.4 0.12 0
1.44 0.12 0
1.4 0.16 0
1.44 0.16 0
1.44 0.12 0
1.48 0.12 0
1.44 0.16 0
1.48 0.16 0
1.48 0.12 0
1.52 0.12 0
1.48 0.16 0
1.52 0.16 0
1.52 0.12 0
1.56 0.12 0
1.52 0.16 0
1.56 0.16 0
1.56 0.12 0
1.6 0.12 0
1.56 0.16 0
1.6 0.16 0
1.6 0.12 0
1.64 0.12 0
1.6 0.16 0
1.64 0.16 0
1.64 0.12 0
1.68 0.12 0
1.64 0.16 0
1.68 0.16 0
1.68 0.12 0
1.72 0.12 0
1.68 0.16 0
1.72 0.16 0
1.72 0.12 0
1.76 0.12 0
1.72 0.16 0
1.76 0.16 0
1.76 0.12 0
1.8 0.12 0
1.76 0.16 0
1.8 0.16 0
1.8 0.12 0
1.84 0.12 0
1.8 0.16 0
1.84 0.16 0
1.84 0.12 0
1.88 0.12 0
1.84 0.16 0
1.88 0.16 0
1.88 0.12 0
1.92 0.12 0
1.88 0.16 0
1.92 0.16 0
1.92 0.12 0
1.96 0.12 0
1.92 0.16 0
1.96 0.16 0
1.96 0.12 0
2 0.12 0
1.96 0.16 0
2 0.16 0
0 0.16 0
0.04 0.16 0
0 0.2 0
0.04 0.2 0
0.04 0.16 0
0.08 0.16 0
0.04 0.2 0
0.08 0.2 0
0.08 0.16 0
0.12 0.16 0
0.08 0.2 0
0.12 0.2 0
0.12 0.16 0
0.16 0.16 0
0.12 0.2 0
0.16 0.2 0
0.16 0.16 0
0.2 0.16 0
0.16 0.2 0
0.2 0.2 0
0.2 0.16 0
0.24 0.16 0
0.2 0.2 0
0.24 0.2 0
0.24 0.16 0
0.28 0.16 0
0.24 0.2 0
0.28 0.2 0
0.28 0.16 0
0.32 0.16 0
0.28 0.2 0
0.32 0.2 0
0.32 0.16 0
0.36 0.16 0
0.32 0.2 0
0.36 0.2 0
0.36 0.16 0
0.4 0.16 0
0.36 0.2 0
0.4 0.2 0
0.4 0.16 0
0.44 0.16 0
0.4 0.2 0
0.44 0.2 0
0.44 0.16 0
0.48 0.16 0
0.44 0.2 0
0.48 0.2 0
0.48 0.16 0
0.52 0.16 0
0.48 0.2 0
0.52 0.2 0
0.52 0.16 0
0.56 0.16 0
0.52 0.2 0
0.56 0.2 0
0.56 0.16 0
0.6 0.16 0
0.56 0.2 0
0.6 0.2 0
0.6 0.16 0
0.64 0.16 0
0.6 0.2 0
0.64 0.2 0
0.64 0.16 0
0.68 0.16 0
0.64 0.2 0
0.68 0.2 0
[...]
POINT_DATA 5000
SCALARS c1 double 1
LOOKUP_TABLE default
0.00629474 0.00629465 0.00629479 0.0062947 0.00629465 0.00629437 0.0062947 0.00629442 0.00629437 0.00629392 0.00629442 0.00629396 0.00629392 0.00629333 0.00629396 0.00629336 0.00629333 0.00629262 0.00629336 0.00629263 0.00629262 0.00629181 0.00629263 0.00629181 0.00629181 0.00629114 0.00629181 0.00629108 0.00629114 0.00629005 0.00629108 0.00629003 0.00629005 0.0062913 0.00629003 0.00629079 0.0062913 0.00628484 0.00629079 0.00628577 0.00628484 0.00631166 0.00628577 0.00630602 0.00631166 0.00621294 0.00630602 0.00623138 0.00621294 0.00662788 0.00623138 0.0065438 0.00662788 0.00516566 0.0065438 0.00541947 0.00516566 0.0158638 0.00541947 0.0120296 0.0158638 0.34542 0.0120296 0.319629 0.34542 0.79183 0.319629 0.766045 0.79183 0.994495 0.766045 0.994141 0.994495 0.994961 0.994141 0.994911 0.994961 0.995637 0.994911 0.99554 0.995637 0.996357 0.99554 0.996239 0.996357 0.997427 0.996239 0.996897 0.997427 0.99829 0.996897 0.997422 0.99829 0.998636 0.997422 0.997738 0.998636 0.998751 0.997738 0.997834 0.998751 0.998636 0.997834 0.997738 0.998636 0.99829 0.997738 0.997422 0.99829 0.997427 0.997422 0.996897 0.997427 0.996357 0.996897 0.996239 0.996357 0.995637 0.996239 0.99554 0.995637 0.994961 0.99554 0.994911 0.994961 0.994495 0.994911 0.994141 0.994495 0.79183 0.994141 0.766045 0.79183 0.34542 0.766045 0.319629 0.34542 0.0158638 0.319629 0.0120296 0.0158638 0.00516566 0.0120296 0.00541947 0.00516566 0.00662788 0.00541947 0.0065438 0.00662788 0.00621294 0.0065438 0.00623138 0.00621294 0.00631166 0.00623138 0.00630602 0.00631166 0.00628484 0.00630602 0.00628577 0.00628484 0.0062913 0.00628577 0.00629079 0.0062913 0.00629005 0.00629079 0.00629003 0.00629005 0.00629114 0.00629003 0.00629108 0.00629114 0.00629181 0.00629108 0.00629181 0.00629181 0.00629262 0.00629181 0.00629263 0.00629262 0.00629333 0.00629263 0.00629336 0.00629333 0.00629392 0.00629336 0.00629396 0.00629392 0.00629437 0.00629396 0.00629442 0.00629437 0.00629465 0.00629442 0.0062947 0.00629465 0.00629474 0.0062947 0.00629479 0.00629479 0.0062947 0.00629493 0.00629484 0.0062947 0.00629442 0.00629484 0.00629455 0.00629442 0.00629396 0.00629455 0.00629408 0.00629396 0.00629336 0.00629408 0.00629345 0.00629336 0.00629263 0.00629345 0.00629268 0.00629263 0.00629181 0.00629268 0.00629181 0.00629181 0.00629108 0.00629181 0.00629093 0.00629108 0.00629003 0.00629093 0.00628994 0.00629003 0.00629079 0.00628994 0.00628963 0.00629079 0.00628577 0.00628963 0.0062874 0.00628577 0.00630602 0.0062874 0.00629429 0.00630602 0.00623138 0.00629429 0.00626788 0.00623138 0.0065438 0.00626788 0.00637721 0.0065438 0.00541947 0.00637721 0.00596288 0.00541947 0.0120296 0.00596288 0.00765352 0.0120296 0.319629 0.00765352 0.243419 0.319629 0.766045 0.243419 0.677987 0.766045 0.994141 0.677987 0.992042 0.994141 0.994911 0.992042 0.995205 0.994911 0.99554 0.995205 0.995204 0.99554 0.996239 0.995204 0.995876 0.996239 0.996897 0.995876 0.99636 0.996897 0.997422 0.99636 0.996756 0.997422 0.997738 0.996756 0.996995 0.997738 0.997834 0.996995 0.997077 0.997834 0.997738 0.997077 0.996995 0.997738 0.997422 0.996995 0.996756 0.997422 0.996897 0.996756 0.99636 0.996897 0.996239 0.99636 0.995876 0.996239 0.99554 0.995876 0.995204 0.99554 0.994911 0.995204 0.995205 0.994911 0.994141 0.995205 0.992042 0.994141 0.766045 0.992042 0.677987 0.766045 0.319629 0.677987 0.243419 0.319629 0.0120296 0.243419 0.00765352 0.0120296 0.00541947 0.00765352 0.00596288 0.00541947 0.0065438 0.00596288 0.00637721 0.0065438 0.00623138 0.00637721 0.00626788 0.00623138 0.00630602 0.00626788 0.00629429 0.00630602 0.00628577 0.00629429 0.0062874 0.00628577 0.00629079 0.0062874 0.00628963 0.00629079 0.00629003 0.00628963 0.00628994 0.00629003 0.00629108 0.00628994 0.00629093 0.00629108 0.00629181 0.00629093 0.00629181 0.00629181 0.00629263 0.00629181 0.00629268 0.00629263 0.00629336 0.00629268 0.00629345 0.00629336 0.00629396 0.00629345 0.00629408 0.00629396 0.00629442 0.00629408 0.00629455 0.00629442 0.0062947 0.00629455 0.00629484 0.0062947 0.00629479 0.00629484 0.00629493 0.00629493 0.00629484 0.00629517 0.00629507 0.00629484 0.00629455 0.00629507 0.00629477 0.00629455 0.00629408 0.00629477 0.00629428 0.00629408 0.00629345 0.00629428 0.00629362 0.00629345 0.00629268 0.00629362 0.00629279 0.00629268 0.00629181 0.00629279 0.00629184 0.00629181 0.00629093 0.00629184 0.00629077 0.00629093 0.00628994 0.00629077 0.00628976 0.00628994 0.00628963 0.00628976 0.00628828 0.00628963 0.0062874 0.00628828 0.00628873 0.0062874 0.00629429 0.00628873 0.00628191 0.00629429 0.00626788 0.00628191 0.00630419 0.00626788 0.00637721 0.00630419 0.00621245 0.00637721 0.00596288 0.00621245 0.00657357 0.00596288 0.00765352 0.00657357 0.00522753 0.00765352 0.243419 0.00522753 0.128115 0.243419 0.677987 0.128115 0.516115 0.677987 0.992042 0.516115 0.90865 0.992042 0.995205 0.90865 0.99666 0.995205 0.995204 0.99666 0.994265 0.995204 0.995876 0.994265 0.995674 0.995876 0.99636 0.995674 0.995822 0.99636 0.996756 0.995822 0.996143 0.996756 0.996995 0.996143 0.996319 0.996995 0.997077 0.996319 0.996386 0.997077 0.996995 0.996386 0.996319 0.996995 0.996756 0.996319 0.996143 0.996756 0.99636 0.996143 0.995822 0.99636 0.995876 0.995822 0.995674 0.995876 0.995204 0.995674 0.994265 0.995204 0.995205 0.994265 0.99666 0.995205 0.992042 0.99666 0.90865 0.992042 0.677987 0.90865 0.516115 0.677987 0.243419 0.516115 0.128115 0.243419 0.00765352 0.128115 0.00522753 0.00765352 0.00596288 0.00522753 0.00657357 0.00596288 0.00637721 0.00657357 0.00621245 0.00637721 0.00626788 0.00621245 0.00630419 0.00626788 0.00629429 0.00630419 0.00628191 0.00629429 0.0062874 0.00628191 0.00628873 0.0062874 0.00628963 0.00628873 0.00628828 0.00628963 0.00628994 0.00628828 0.00628976 0.00628994 0.00629093 0.00628976 0.00629077 0.00629093 0.00629181 0.00629077 0.00629184 0.00629181 0.00629268 0.00629184 0.00629279 0.00629268 0.00629345 0.00629279 0.00629362 0.00629345 0.00629408 0.00629362 0.00629428 0.00629408 0.00629455 0.00629428 0.00629477 0.00629455 0.00629484 0.00629477 0.00629507 0.00629484 0.00629493 0.00629507 0.00629517 0.00629517 0.00629507 0.00629551 0.00629541 0.00629507 0.00629477 0.00629541 0.0062951 0.00629477 0.00629428 0.0062951 0.00629458 0.00629428 0.00629362 0.00629458 0.00629387 0.00629362 0.00629279 0.00629387 0.00629297 0.00629279 0.00629184 0.00629297 0.00629192 0.00629184 0.00629077 0.00629192 0.00629068 0.00629077 0.00628976 0.00629068 0.00628947 0.00628976 0.00628828 0.00628947 0.00628747 0.00628828 0.00628873 0.00628747 0.00628793 0.00628873 0.00628191 0.00628793 0.00627787 0.00628191 0.00630419 0.00627787 0.00630787 0.00630419 0.00621245 0.00630787 0.00617815 0.00621245 0.00657357 0.00617815 0.00668256 0.00657357 0.00522753 0.00668256 0.00485417 0.00522753 0.128115 0.00485417 0.0174548 0.128115 0.516115 0.0174548 0.302497 0.516115 0.90865 0.302497 0.699791 0.90865 0.99666 0.699791 0.987429 0.99666 0.994265 0.987429 0.99623 0.994265 0.995674 0.99623 0.994164 0.995674 0.995822 0.994164 0.995325 0.995822 0.996143 0.995325 0.995596 0.996143 0.996319 0.995596 0.995794 0.996319 0.996386 0.995794 0.995846 0.996386 0.996319 0.995846 0.995794 0.996319 0.996143 0.995794 0.995596 0.996143 0.995822 0.995596 0.995325 0.995822 0.995674 0.995325 0.994164 0.995674 0.994265 0.994164 0.99623 0.994265 0.99666 0.99623 0.987429 0.99666 0.90865 0.987429 0.699791 0.90865 0.516115 0.699791 0.302497 0.516115 0.128115 0.302497 0.0174548 0.128115 0.00522753 0.0174548 0.00485417 0.00522753 0.00657357 0.00485417 0.00668256 0.00657357 0.00621245 0.00668256 0.00617815 0.00621245 0.00630419 0.00617815 0.00630787 0.00630419 0.00628191 0.00630787 0.00627787 0.00628191 0.00628873 0.00627787 0.00628793 0.00628873 0.00628828 0.00628793 0.00628747 0.00628828 0.00628976 0.00628747 0.00628947 0.00628976 0.00629077 0.00628947 0.00629068 0.00629077 0.00629184 0.00629068 0.00629192 0.00629184 0.00629279 0.00629192 0.00629297 0.00629279 0.00629362 0.00629297 0.00629387 0.00629362 0.00629428 0.00629387 0.00629458 0.00629428 0.00629477 0.00629458 0.0062951 0.00629477 0.00629507 0.0062951 0.00629541 0.00629507 0.00629517 0.00629541 0.00629551 0.00629551 0.00629541 0.00629596 0.00629585 0.00629541 0.0062951 0.00629585 0.00629552 0.0062951 0.00629458 0.00629552 0.00629497 0.00629458 0.00629387 0.00629497 0.00629422 0.00629387 0.00629297 0.00629422 0.00629326 0.00629297 0.00629192 0.00629326 0.0062921 0.00629192 0.00629068 0.0062921 0.00629075 0.00629068 0.00628947 0.00629075 0.00628914 0.00628947 0.00628747 0.00628914 0.00628752 0.00628747 0.00628793 0.00628752 0.00628474 0.00628793 0.00627787 0.00628474 0.00628484 0.00627787 0.00630787 0.00628484 0.0062711 0.00630787 0.00617815 0.0062711 0.00630733 0.00617815 0.00668256 0.00630733 0.00613872 0.00668256 0.00485417 0.00613872 0.0067429 0.00485417 0.0174548 0.0067429 0.00395815 0.0174548 0.302497 0.00395815 0.0951969 0.302497 0.699791 0.0951969 0.417004 0.699791 0.987429 0.417004 0.770257 0.987429 0.99623 0.770257 0.989604 0.99623 0.994164 0.989604 0.996706 0.994164 0.995325 0.996706 0.994824 0.995325 0.995596 0.994824 0.994723 0.995596 0.995794 0.994723 0.994728 0.995794 0.995846 0.994728 0.994746 0.995846 0.995794 0.994746 0.994728 0.995794 0.995596 0.994728 0.994723 0.995596 0.995325 0.994723 0.994824 0.995325 0.994164 0.994824 0.996706 0.994164 0.99623 0.996706 0.989604 0.99623 0.987429 0.989604 0.770257 0.987429 0.699791 0.770257 0.417004 0.699791 0.302497 0.417004 0.0951969 0.302497 0.0174548 0.0951969 0.00395815 0.0174548 0.00485417 0.00395815 0.0067429 0.00485417 0.00668256 0.0067429 0.00613872 0.00668256 0.00617815 0.00613872 0.00630733 0.00617815 0.00630787 0.00630733 0.0062711 0.00630787 0.00627787 0.0062711 0.00628484 0.00627787 0.00628793 0.00628484 0.00628474 0.00628793 0.00628747 0.00628474 0.00628752 0.00628747 0.00628947 0.00628752 0.00628914 0.00628947 0.00629068 0.00628914 0.00629075 0.00629068 0.00629192 0.00629075 0.0062921 0.00629192 0.00629297 0.0062921 0.00629326 0.00629297 0.00629387 0.00629326 0.00629422 0.00629387 0.00629458 0.00629422 0.00629497 0.00629458 0.0062951 0.00629497 0.00629552 0.0062951 0.00629541 0.00629552 0.00629585 0.00629541 0.00629551 0.00629585 0.00629596 0.00629596 0.00629585 0.0062965 0.00629638 0.00629585 0.00629552 0.00629638 0.00629604 0.00629552 0.00629497 0.00629604 0.00629547 0.00629497 0.00629422 0.00629547 0.00629468 0.00629422 0.00629326 0.00629468 0.00629366 0.00629326 0.0062921 0.00629366 0.00629242 0.0062921 0.00629075 0.00629242 0.00629094 0.00629075 0.00628914 0.00629094 0.0062892 0.00628914 0.00628752 0.0062892 0.00628717 0.00628752 0.00628474 0.00628717 0.0062847 0.00628474 0.00628484 0.0062847 0.00628195 0.00628484 0.0062711 0.00628195 0.0062774 0.0062711 0.00630733 0.0062774 0.0062759 0.00630733 0.00613872 0.0062759 0.00625697 0.00613872 0.0067429 0.00625697 0.00630831 0.0067429 0.00395815 0.00630831 0.0062338 0.00395815 0.0951969 0.0062338 0.00466437 0.0951969 0.417004 0.00466437 0.138679 0.417004 0.770257 0.138679 0.431261 0.770257 0.989604 0.431261 0.729257 0.989604 0.996706 0.729257 0.942179 0.996706 0.994824 0.942179 0.994968 0.994824 0.994723 0.994968 0.995025 0.994723 0.994728 0.995025 0.995895 0.994728 0.994746 0.995895 0.995892 0.994746 0.994728 0.995892 0.995895 0.994728 0.994723 0.995895 0.995025 0.994723 0.994824 0.995025 0.994968 0.994824 0.996706 0.994968 0.942179 0.996706 0.989604 0.942179 0.729257 0.989604 0.770257 0.729257 0.431261 0.770257 0.417004 0.431261 0.138679 0.417004 0.0951969 0.138679 0.00466437 0.0951969 0.00395815 0.00466437 0.0062338 0.00395815 0.0067429 0.0062338 0.00630831 0.0067429 0.00613872 0.00630831 0.00625697 0.00613872 0.00630733 0.00625697 0.0062759 0.00630733 0.0062711 0.0062759 0.0062774 0.0062711 0.00628484 0.0062774 0.00628195 0.00628484 0.00628474 0.00628195 0.0062847 0.00628474 0.00628752 0.0062847 0.00628717 0.00628752 0.00628914 0.00628717 0.0062892 0.00628914 0.00629075 0.0062892 0.00629094 0.00629075 0.0062921 0.00629094 0.00629242 0.0062921 0.00629326 0.00629242 0.00629366 0.00629326 0.00629422 0.00629366 0.00629468 0.00629422 0.00629497 0.00629468 0.00629547 0.00629497 0.00629552 0.00629547 0.00629604 0.00629552 0.00629585 0.00629604 0.00629638 0.00629585 0.00629596 0.00629638 0.0062965 0.0062965 0.00629638 0.00629714 0.00629702 0.00629638 0.00629604 0.00629702 0.00629667 0.00629604 0.00629547 0.00629667 0.00629609 0.00629547 0.00629468 0.00629609 0.00629526 0.00629468 0.00629366 0.00629526 0.0062942 0.00629366 0.00629242 0.0062942 0.0062929 0.00629242 0.00629094 0.0062929 0.00629133 0.00629094 0.0062892 0.00629133 0.00628949 0.0062892 0.00628717 0.00628949 0.00628729 0.00628717 0.0062847 0.00628729 0.00628477 0.0062847 0.00628195 0.00628477 0.00628143 0.00628195 0.0062774 0.00628143 0.00627865 0.0062774 0.0062759 0.00627865 0.00627028 0.0062759 0.00625697 0.00627028 0.00627969 0.00625697 0.00630831 0.00627969 0.00621252 0.00630831 0.0062338 0.00621252 0.00640378 0.0062338 0.00466437 0.00640378 0.00614004 0.00466437 0.138679 0.00614004 0.00500044 0.138679 0.431261 0.00500044 0.113725 0.431261 0.729257 0.113725 0.342115 0.729257 0.942179 0.342115 0.573514 0.942179 0.994968 0.573514 0.751723 0.994968 0.995025 0.751723 0.863623 0.995025 0.995895 0.863623 0.926605 0.995895 0.995892 0.926605 0.947564 0.995892 0.995895 0.947564 0.926605 0.995895 0.995025 0.926605 0.863623 0.995025 0.994968 0.863623 0.751723 0.994968 0.942179 0.751723 0.573514 0.942179 0.729257 0.573514 0.342115 0.729257 0.431261 0.342115 0.113725 0.431261 0.138679 0.113725 0.00500044 0.138679 0.00466437 0.00500044 0.00614004 0.00466437 0.0062338 0.00614004 0.00640378 0.0062338 0.00630831 0.00640378 0.00621252 0.00630831 0.00625697 0.00621252 0.00627969 0.00625697 0.0062759 0.00627969 0.00627028 0.0062759 0.0062774 0.00627028 0.00627865 0.0062774 0.00628195 0.00627865 0.00628143 0.00628195 0.0062847 0.00628143 0.00628477 0.0062847 0.00628717 0.00628477 0.00628729 0.00628717 0.0062892 0.00628729 0.00628949 0.0062892 0.00629094 0.00628949 0.00629133 0.00629094 0.00629242 0.00629133 0.0062929 0.00629242 0.00629366 0.0062929 0.0062942 0.00629366 0.00629468 0.0062942 0.00629526 0.00629468 0.00629547 0.00629526 0.00629609 0.00629547 0.00629604 0.00629609 0.00629667 0.00629604 0.00629638 0.00629667 0.00629702 0.00629638 0.0062965 0.00629702 0.00629714 0.00629714 0.00629702 0.00629788 0.00629776 0.00629702 0.00629667 0.00629776 0.0062974 0.00629667 0.00629609 0.0062974 0.0062968 0.00629609 0.00629526 0.0062968 0.00629597 0.00629526 0.0062942 0.00629597 0.00629488 0.0062942 0.0062929 0.00629488 0.00629354 0.0062929 0.00629133 0.00629354 0.00629194 0.00629133 0.00628949 0.00629194 0.00629003 0.00628949 0.00628729 0.00629003 0.00628781 0.00628729 0.00628477 0.00628781 0.00628518 0.00628477 0.00628143 0.00628518 0.00628221 0.00628143 0.00627865 0.00628221 0.00627828 0.00627865 0.00627028 0.00627828 0.00627561 0.00627028 0.00627969 0.00627561 0.00626535 0.00627969 0.00621252 0.00626535 0.00628337 0.00621252 0.00640378 0.00628337 0.0062007 0.00640378 0.00614004 0.0062007 0.0063757 0.00614004 0.00500044 0.0063757 0.00625535 0.00500044 0.113725 0.00625535 0.00381299 0.113725 0.342115 0.00381299 0.0369797 0.342115 0.573514 0.0369797 0.174634 0.573514 0.751723 0.174634 0.319085 0.751723 0.863623 0.319085 0.438149 0.863623 0.926605 0.438149 0.518333 0.926605 0.947564 0.518333 0.54672 0.947564 0.926605 0.54672 0.518333 0.926605 0.863623 0.518333 0.438149 0.863623 0.751723 0.438149 0.319085 0.751723 0.573514 0.319085 0.174634 0.573514 0.342115 0.174634 0.0369797 0.342115 0.113725 0.0369797 0.00381299 0.113725 0.00500044 0.00381299 0.00625535 0.00500044 0.00614004 0.00625535 0.0063757 0.00614004 0.00640378 0.0063757 0.0062007 0.00640378 0.00621252 0.0062007 0.00628337 0.00621252 0.00627969 0.00628337 0.00626535 0.00627969 0.00627028 0.00626535 0.00627561 0.00627028 0.00627865 0.00627561 0.00627828 0.00627865 0.00628143 0.00627828 0.00628221 0.00628143 0.00628477 0.00628221 0.00628518 0.00628477 0.00628729 0.00628518 0.00628781 0.00628729 0.00628949 0.00628781 0.00629003 0.00628949 0.00629133 0.00629003 0.00629194 0.00629133 0.0062929 0.00629194 0.00629354 0.0062929 0.0062942 0.00629354 0.00629488 0.0062942 0.00629526 0.00629488 0.00629597 0.00629526 0.00629609 0.00629597 0.0062968 0.00629609 0.00629667 0.0062968 0.0062974 0.00629667 0.00629702 0.0062974 0.00629776 0.00629702 0.00629714 0.00629776 0.00629788 0.00629788 0.00629776 0.0062987 0.00629858 0.00629776 0.0062974 0.00629858 0.00629822 0.0062974 0.0062968 0.00629822 0.00629762 0.0062968 0.00629597 0.00629762 0.00629678 0.00629597 0.00629488 0.00629678 0.00629569 0.00629488 0.00629354 0.00629569 0.00629435 0.00629354 0.00629194 0.00629435 0.00629273 0.00629194 0.00629003 0.00629273 0.00629084 0.00629003 0.00628781 0.00629084 0.00628862 0.00628781 0.00628518 0.00628862 0.00628608 0.00628518 0.00628221 0.00628608 0.00628313 0.00628221 0.00627828 0.00628313 0.00627996 0.00627828 0.00627561 0.00627996 0.00627577 0.00627561 0.00626535 0.00627577 0.00627395 0.00626535 0.00628337 0.00627395 0.00626168 0.00628337 0.0062007 0.00626168 0.00628798 0.0062007 0.0063757 0.00628798 0.00620097 0.0063757 0.00625535 0.00620097 0.00638255 0.00625535 0.00381299 0.00638255 0.00649717 0.00381299 0.0369797 0.00649717 0.00453251 0.0369797 0.174634 0.00453251 0.00573217 0.174634 0.319085 0.00573217 0.0132025 0.319085 0.438149 0.0132025 0.061883 0.438149 0.518333 0.061883 0.109534 0.518333 0.54672 0.109534 0.127715 0.54672 0.518333 0.127715 0.109534 0.518333 0.438149 0.109534 0.061883 0.438149 0.319085 0.061883 0.0132025 0.319085 0.174634 0.0132025 0.00573217 0.174634 0.0369797 0.00573217 0.00453251 0.0369797 0.00381299 0.00453251 0.00649717 0.00381299 0.00625535 0.00649717 0.00638255 0.00625535 0.0063757 0.00638255 0.00620097 0.0063757 0.0062007 0.00620097 0.00628798 0.0062007 0.00628337 0.00628798 0.00626168 0.00628337 0.00626535 0.00626168 0.00627395 0.00626535 0.00627561 0.00627395 0.00627577 0.00627561 0.00627828 0.00627577 0.00627996 0.00627828 0.00628221 0.00627996 0.00628313 0.00628221 0.00628518 0.00628313 0.00628608 0.00628518 0.00628781 0.00628608 0.00628862 0.00628781 0.00629003 0.00628862 0.00629084 0.00629003 0.00629194 0.00629084 0.00629273 0.00629194 0.00629354 0.00629273 0.00629435 0.00629354 0.00629488 0.00629435 0.00629569 0.00629488 0.00629597 0.00629569 0.00629678 0.00629597 0.0062968 0.00629678 0.00629762 0.0062968 0.0062974 0.00629762 0.00629822 0.0062974 0.00629776 0.00629822 0.00629858 0.00629776 0.00629788 0.00629858 0.0062987 0.0062987 0.00629858 0.0062996 0.00629948 0.00629858 0.00629822 0.00629948 0.00629913 0.00629822 0.00629762 0.00629913 0.00629853 0.00629762 0.00629678 0.00629853 0.0062977 0.00629678 0.00629569 0.0062977 0.00629662 0.00629569 0.00629435 0.00629662 0.00629529 0.00629435 0.00629273 0.00629529 0.0062937 0.00629273 0.00629084 0.0062937 0.00629185 0.00629084 0.00628862 0.00629185 0.00628971 0.00628862 0.00628608 0.00628971 0.00628727 0.00628608 0.00628313 0.00628727 0.00628454 0.00628313 0.00627996 0.00628454 0.00628148 0.00627996 0.00627577 0.00628148 0.00627834 0.00627577 0.00627395 0.00627834 0.0062744 0.00627395 0.00626168 0.0062744 0.00627303 0.00626168 0.00628798 0.00627303 0.00626246 0.00628798 0.00620097 0.00626246 0.0062797 0.00620097 0.00638255 0.0062797 0.00623531 0.00638255 0.00649717 0.00623531 0.00618609 0.00649717 0.00453251 0.00618609 0.00678704 0.00453251 0.00573217 0.00678704 0.0063356 0.00573217 0.0132025 0.0063356 0.00512096 0.0132025 0.061883 0.00512096 0.00446523 0.061883 0.109534 0.00446523 0.0049951 0.109534 0.127715 0.0049951 0.00517965 0.127715 0.109534 0.00517965 0.0049951 0.109534 0.061883 0.0049951 0.00446523 0.061883 0.0132025 0.00446523 0.00512096 0.0132025 0.00573217 0.00512096 0.0063356 0.00573217 0.00453251 0.0063356 0.00678704 0.00453251 0.00649717 0.00678704 0.00618609 0.00649717 0.00638255 0.00618609 0.00623531 0.00638255 0.00620097 0.00623531 0.0062797 0.00620097 0.00628798 0.0062797 0.00626246 0.00628798 0.00626168 0.00626246 0.00627303 0