# vtk DataFile Version 3.0
#This file was generated by the deal.II library on 2023/1/15 at 18:51:15
ASCII
DATASET UNSTRUCTURED_GRID

POINTS 5000 double
0 0 0
0.04 0 0
0 0.04 0
0.04 0.04 0
0.04 0 0
0.08 0 0
0.04 0.04 0
0.08 0.04 0
0.08 0 0
0.12 0 0
0.08 0.04 0
0.12 0.04 0
0.12 0 0
0.16 0 0
0.12 0.04 0
0.16 0.04 0
0.16 0 0
0.2 0 0
0.16 0.04 0
0.2 0.04 0
0.2 0 0
0.24 0 0
0.2 0.04 0
0.24 0.04 0
0.24 0 0
0.28 0 0
0.24 0.04 0
0.28 0.04 0
0.28 0 0
0.32 0 0
0.28 0.04 0
0.32 0.04 0
0.32 0 0
0.36 0 0
0.32 0.04 0
0.36 0.04 0
0.36 0 0
0.4 0 0
0.36 0.04 0
0.4 0.04 0
0.4 0 0
0.44 0 0
0.4 0.04 0
0.44 0.04 0
0.44 0 0
0.48 0 0
0.44 0.04 0
0.48 0.04 0
0.48 0 0
0.52 0 0
0.48 0.04 0
0.52 0.04 0
0.52 0 0
0.56 0 0
0.52 0.04 0
0.56 0.04 0
0.56 0 0
0.6 0 0
0.56 0.04 0
0.6 0.04 0
0.6 0 0
0.64 0 0
0.6 0.04 0
0.64 0.04 0
0.64 0 0
0.68 0 0
0.64 0.04 0
0.68 0.04 0
0.68 0 0
0.72 0 0
0.68 0.04 0
0.72 0.04 0
0.72 0 0
0.76 0 0
0.72 0.04 0
0.76 0.04 0
0.76 0 0
0.8 0 0
0.76 0.04 0
0.8 0.04 0
0.8 0 0
0.84 0 0
0.8 0.04 0
0.84 0.04 0
0.84 0 0
0.88 0 0
0.84 0.04 0
0.88 0.04 0
0.88 0 0
0.92 0 0
0.88 0.04 0
0.92 0.04 0
0.92 0 0
0.96 0 0
0.92 0.04 0
0.96 0.04 0
0.96 0 0
1 0 0
0.96 0.04 0
1 0.04 0
1 0 0
1.04 0 0
1 0.04 0
1.04 0.04 0
1.04 0 0
1.08 0 0
1.04 0.04 0
1.08 0.04 0
1.08 0 0
1.12 0 0
1.08 0.04 0
1.12 0.04 0
1.12 0 0
1.16 0 0
1.12 0.04 0
1.16 0.04 0
1.16 0 0
1.2 0 0
1.16 0.04 0
1.2 0.04 0
1.2 0 0
1.24 0 0
1.2 0.04 0
1.24 0.04 0
1.24 0 0
1.28 0 0
1.24 0.04 0
1.28 0.04 0
1.28 0 0
1.32 0 0
1.28 0.04 0
1.32 0.04 0
1.32 0 0
1.36 0 0
1.32 0.04 0
1.36 0.04 0
1.36 0 0
1.4 0 0
1.36 0.04 0
1.4 0.04 0
1.4 0 0
1.44 0 0
1.4 0.04 0
1.44 0.04 0
1.44 0 0
1.48 0 0
1.44 0.04 0
1.48 0.04 0
1.48 0 0
1.52 0 0
1.48 0.04 0
1.52 0.04 0
1.52 0 0
1.56 0 0
1.52 0.04 0
1.56 0.04 0
1.56 0 0
1.6 0 0
1.56 0.04 0
1.6 0.04 0
1.6 0 0
1.64 0 0
1.6 0.04 0
1.64 0.04 0
1.64 0 0
1.68 0 0
1.64 0.04 0
1.68 0.04 0
1.68 0 0
1.72 0 0
1.68 0.04 0
1.72 0.04 0
1.72 0 0
1.76 0 0
1.72 0.04 0
1.76 0.04 0
1.76 0 0
1.8 0 0
1.76 0.04 0
1.8 0.04 0
1.8 0 0
1.84 0 0
1.8 0.04 0
1.84 0.04 0
1.84 0 0
1.88 0 0
1.84 0.04 0
1.88 0.04 0
1.88 0 0
1.92 0 0
1.88 0.04 0
1.92 0.04 0
1.92 0 0
1.96 0 0
1.92 0.04 0
1.96 0.04 0
1.96 0 0
2 0 0
1.96 0.04 0
2 0.04 0
0 0.04 0
0.04 0.04 0
0 0.08 0
0.04 0.08 0
0.04 0.04 0
0.08 0.04 0
0.04 0.08 0
0.08 0.08 0
0.08 0.04 0
0.12 0.04 0
0.08 0.08 0
0.12 0.08 0
0.12 0.04 0
0.16 0.04 0
0.12 0.08 0
0.16 0.08 0
0.16 0.04 0
0.2 0.04 0
0.16 0.08 0
0.2 0.08 0
0.2 0.04 0
0.24 0.04 0
0.2 0.08 0
0.24 0.08 0
0.24 0.04 0
0.28 0.04 0
0.24 0.08 0
0.28 0.08 0
0.28 0.04 0
0.32 0.04 0
0.28 0.08 0
0.32 0.08 0
0.32 0.04 0
0.36 0.04 0
0.32 0.08 0
0.36 0.08 0
0.36 0.04 0
0.4 0.04 0
0.36 0.08 0
0.4 0.08 0
0.4 0.04 0
0.44 0.04 0
0.4 0.08 0
0.44 0.08 0
0.44 0.04 0
0.48 0.04 0
0.44 0.08 0
0.48 0.08 0
0.48 0.04 0
0.52 0.04 0
0.48 0.08 0
0.52 0.08 0
0.52 0.04 0
0.56 0.04 0
0.52 0.08 0
0.56 0.08 0
0.56 0.04 0
0.6 0.04 0
0.56 0.08 0
0.6 0.08 0
0.6 0.04 0
0.64 0.04 0
0.6 0.08 0
0.64 0.08 0
0.64 0.04 0
0.68 0.04 0
0.64 0.08 0
0.68 0.08 0
0.68 0.04 0
0.72 0.04 0
0.68 0.08 0
0.72 0.08 0
0.72 0.04 0
0.76 0.04 0
0.72 0.08 0
0.76 0.08 0
0.76 0.04 0
0.8 0.04 0
0.76 0.08 0
0.8 0.08 0
0.8 0.04 0
0.84 0.04 0
0.8 0.08 0
0.84 0.08 0
0.84 0.04 0
0.88 0.04 0
0.84 0.08 0
0.88 0.08 0
0.88 0.04 0
0.92 0.04 0
0.88 0.08 0
0.92 0.08 0
0.92 0.04 0
0.96 0.04 0
0.92 0.08 0
0.96 0.08 0
0.96 0.04 0
1 0.04 0
0.96 0.08 0
1 0.08 0
1 0.04 0
1.04 0.04 0
1 0.08 0
1.04 0.08 0
1.04 0.04 0
1.08 0.04 0
1.04 0.08 0
1.08 0.08 0
1.08 0.04 0
1.12 0.04 0
1.08 0.08 0
1.12 0.08 0
1.12 0.04 0
1.16 0.04 0
1.12 0.08 0
1.16 0.08 0
1.16 0.04 0
1.2 0.04 0
1.16 0.08 0
1.2 0.08 0
1.2 0.04 0
1.24 0.04 0
1.2 0.08 0
1.24 0.08 0
1.24 0.04 0
1.28 0.04 0
1.24 0.08 0
1.28 0.08 0
1.28 0.04 0
1.32 0.04 0
1.28 0.08 0
1.32 0.08 0
1.32 0.04 0
1.36 0.04 0
1.32 0.08 0
1.36 0.08 0
1.36 0.04 0
1.4 0.04 0
1.36 0.08 0
1.4 0.08 0
1.4 0.04 0
1.44 0.04 0
1.4 0.08 0
1.44 0.08 0
1.44 0.04 0
1.48 0.04 0
1.44 0.08 0
1.48 0.08 0
1.48 0.04 0
1.52 0.04 0
1.48 0.08 0
1.52 0.08 0
1.52 0.04 0
1.56 0.04 0
1.52 0.08 0
1.56 0.08 0
1.56 0.04 0
1.6 0.04 0
1.56 0.08 0
1.6 0.08 0
1.6 0.04 0
1.64 0.04 0
1.6 0.08 0
1.64 0.08 0
1.64 0.04 0
1.68 0.04 0
1.64 0.08 0
1.68 0.08 0
1.68 0.04 0
1.72 0.04 0
1.68 0.08 0
1.72 0.08 0
1.72 0.04 0
1.76 0.04 0
1.72 0.08 0
1.76 0.08 0
1.76 0.04 0
1.8 0.04 0
1.76 0.08 0
1.8 0.08 0
1.8 0.04 0
1.84 0.04 0
1.8 0.08 0
1.84 0.08 0
1.84 0.04 0
1.88 0.04 0
1.84 0.08 0
1.88 0.08 0
1.88 0.04 0
1.92 0.04 0
1.88 0.08 0
1.92 0.08 0
1.92 0.04 0
1.96 0.04 0
1.92 0.08 0
1.96 0.08 0
1.96 0.04 0
2 0.04 0
1.96 0.08 0
2 0.08 0
0 0.08 0
0.04 0.08 0
0 0.12 0
0.04 0.12 0
0.04 0.08 0
0.08 0.08 0
0.04 0.12 0
0.08 0.12 0
0.08 0.08 0
0.12 0.08 0
0.08 0.12 0
0.12 0.12 0
0.12 0.08 0
0.16 0.08 0
0.12 0.12 0
0.16 0.12 0
0.16 0.08 0
0.2 0.08 0
0.16 0.12 0
0.2 0.12 0
0.2 0.08 0
0.24 0.08 0
0.2 0.12 0
0.24 0.12 0
0.24 0.08 0
0.28 0.08 0
0.24 0.12 0
0.28 0.12 0
0.28 0.08 0
0.32 0.08 0
0.28 0.12 0
0.32 0.12 0
0.32 0.08 0
0.36 0.08 0
0.32 0.12 0
0.36 0.12 0
0.36 0.08 0
0.4 0.08 0
0.36 0.12 0
0.4 0.12 0
0.4 0.08 0
0.44 0.08 0
0.4 0.12 0
0.44 0.12 0
0.44 0.08 0
0.48 0.08 0
0.44 0.12 0
0.48 0.12 0
0.48 0.08 0
0.52 0.08 0
0.48 0.12 0
0.52 0.12 0
0.52 0.08 0
0.56 0.08 0
0.52 0.12 0
0.56 0.12 0
0.56 0.08 0
0.6 0.08 0
0.56 0.12 0
0.6 0.12 0
0.6 0.08 0
0.64 0.08 0
0.6 0.12 0
0.64 0.12 0
0.64 0.08 0
0.68 0.08 0
0.64 0.12 0
0.68 0.12 0
0.68 0.08 0
0.72 0.08 0
0.68 0.12 0
0.72 0.12 0
0.72 0.08 0
0.76 0.08 0
0.72 0.12 0
0.76 0.12 0
0.76 0.08 0
0.8 0.08 0
0.76 0.12 0
0.8 0.12 0
0.8 0.08 0
0.84 0.08 0
0.8 0.12 0
0.84 0.12 0
0.84 0.08 0
0.88 0.08 0
0.84 0.12 0
0.88 0.12 0
0.88 0.08 0
0.92 0.08 0
0.88 0.12 0
0.92 0.12 0
0.92 0.08 0
0.96 0.08 0
0.92 0.12 0
0.96 0.12 0
0.96 0.08 0
1 0.08 0
0.96 0.12 0
1 0.12 0
1 0.08 0
1.04 0.08 0
1 0.12 0
1.04 0.12 0
1.04 0.08 0
1.08 0.08 0
1.04 0.12 0
1.08 0.12 0
1.08 0.08 0
1.12 0.08 0
1.08 0.12 0
1.12 0.12 0
1.12 0.08 0
1.16 0.08 0
1.12 0.12 0
1.16 0.12 0
1.16 0.08 0
1.2 0.08 0
1.16 0.12 0
1.2 0.12 0
1.2 0.08 0
1.24 0.08 0
1.2 0.12 0
1.24 0.12 0
1.24 0.08 0
1.28 0.08 0
1.24 0.12 0
1.28 0.12 0
1.28 0.08 0
1.32 0.08 0
1.28 0.12 0
1.32 0.12 0
1.32 0.08 0
1.36 0.08 0
1.32 0.12 0
1.36 0.12 0
1.36 0.08 0
1.4 0.08 0
1.36 0.12 0
1.4 0.12 0
1.4 0.08 0
1.44 0.08 0
1.4 0.12 0
1.44 0.12 0
1.44 0.08 0
1.48 0.08 0
1.44 0.12 0
1.48 0.12 0
1.48 0.08 0
1.52 0.08 0
1.48 0.12 0
1.52 0.12 0
1.52 0.08 0
1.56 0.08 0
1.52 0.12 0
1.56 0.12 0
1.56 0.08 0
1.6 0.08 0
1.56 0.12 0
1.6 0.12 0
1.6 0.08 0
1.64 0.08 0
1.6 0.12 0
1.64 0.12 0
1.64 0.08 0
1.68 0.08 0
1.64 0.12 0
1.68 0.12 0
1.68 0.08 0
1.72 0.08 0
1.68 0.12 0
1.72 0.12 0
1.72 0.08 0
1.76 0.08 0
1.72 0.12 0
1.76 0.12 0
1.76 0.08 0
1.8 0.08 0
1.76 0.12 0
1.8 0.12 0
1.8 0.08 0
1.84 0.08 0
1.8 0.12 0
1.84 0.12 0
1.84 0.08 0
1.88 0.08 0
1.84 0.12 0
1.88 0.12 0
1.88 0.08 0
1.92 0.08 0
1.88 0.12 0
1.92 0.12 0
1.92 0.08 0
1.96 0.08 0
1.92 0.12 0
1.96 0.12 0
1.96 0.08 0
2 0.08 0
1.96 0.12 0
2 0.12 0
0 0.12 0
0.04 0.12 0
0 0.16 0
0.04 0.16 0
0.04 0.12 0
0.08 0.12 0
0.04 0.16 0
0.08 0.16 0
0.08 0.12 0
0.12 0.12 0
0.08 0.16 0
0.12 0.16 0
0.12 0.12 0
0.16 0.12 0
0.12 0.16 0
0.16 0.16 0
0.16 0.12 0
0.2 0.12 0
0.16 0.16 0
0.2 0.16 0
0.2 0.12 0
0.24 0.12 0
0.2 0.16 0
0.24 0.16 0
0.24 0.12 0
0.28 0.12 0
0.24 0.16 0
0.28 0.16 0
0.28 0.12 0
0.32 0.12 0
0.28 0.16 0
0.32 0.16 0
0.32 0.12 0
0.36 0.12 0
0.32 0.16 0
0.36 0.16 0
0.36 0.12 0
0.4 0.12 0
0.36 0.16 0
0.4 0.16 0
0.4 0.12 0
0.44 0.12 0
0.4 0.16 0
0.44 0.16 0
0.44 0.12 0
0.48 0.12 0
0.44 0.16 0
0.48 0.16 0
0.48 0.12 0
0.52 0.12 0
0.48 0.16 0
0.52 0.16 0
0.52 0.12 0
0.56 0.12 0
0.52 0.16 0
0.56 0.16 0
0.56 0.12 0
0.6 0.12 0
0.56 0.16 0
0.6 0.16 0
0.6 0.12 0
0.64 0.12 0
0.6 0.16 0
0.64 0.16 0
0.64 0.12 0
0.68 0.12 0
0.64 0.16 0
0.68 0.16 0
0.68 0.12 0
0.72 0.12 0
0.68 0.16 0
0.72 0.16 0
0.72 0.12 0
0.76 0.12 0
0.72 0.16 0
0.76 0.16 0
0.76 0.12 0
0.8 0.12 0
0.76 0.16 0
0.8 0.16 0
0.8 0.12 0
0.84 0.12 0
0.8 0.16 0
0.84 0.16 0
0.84 0.12 0
0.88 0.12 0
0.84 0.16 0
0.88 0.16 0
0.88 0.12 0
0.92 0.12 0
0.88 0.16 0
0.92 0.16 0
0.92 0.12 0
0.96 0.12 0
0.92 0.16 0
0.96 0.16 0
0.96 0.12 0
1 0.12 0
0.96 0.16 0
1 0.16 0
1 0.12 0
1.04 0.12 0
1 0.16 0
1.04 0.16 0
1.04 0.12 0
1.08 0.12 0
1.04 0.16 0
1.08 0.16 0
1.08 0.12 0
1.12 0.12 0
1.08 0.16 0
1.12 0.16 0
1.12 0.12 0
1.16 0.12 0
1.12 0.16 0
1.16 0.16 0
1.16 0.12 0
1.2 0.12 0
1.16 0.16 0
1.2 0.16 0
1.2 0.12 0
1.24 0.12 0
1.2 0.16 0
1.24 0.16 0
1.24 0.12 0
1.28 0.12 0
1.24 0.16 0
1.28 0.16 0
1.28 0.12 0
1.32 0.12 0
1.28 0.16 0
1.32 0.16 0
1.32 0.12 0
1.36 0.12 0
1.32 0.16 0
1.36 0.16 0
1.36 0.12 0
1.4 0.12 0
1.36 0.16 0
1.4 0.16 0
1.4 0.12 0
1.44 0.12 0
1.4 0.16 0
1.44 0.16 0
1.44 0.12 0
1.48 0.12 0
1.44 0.16 0
1.48 0.16 0
1.48 0.12 0
1.52 0.12 0
1.48 0.16 0
1.52 0.16 0
1.52 0.12 0
1.56 0.12 0
1.52 0.16 0
1.56 0.16 0
1.56 0.12 0
1.6 0.12 0
1.56 0.16 0
1.6 0.16 0
1.6 0.12 0
1.64 0.12 0
1.6 0.16 0
1.64 0.16 0
1.64 0.12 0
1.68 0.12 0
1.64 0.16 0
1.68 0.16 0
1.68 0.12 0
1.72 0.12 0
1.68 0.16 0
1.72 0.16 0
1.72 0.12 0
1.76 0.12 0
1.72 0.16 0
1.76 0.16 0
1.76 0.12 0
1.8 0.12 0
1.76 0.16 0
1.8 0.16 0
1.8 0.12 0
1.84 0.12 0
1.8 0.16 0
1.84 0.16 0
1.84 0.12 0
1.88 0.12 0
1.84 0.16 0
1.88 0.16 0
1.88 0.12 0
1.92 0.12 0
1.88 0.16 0
1.92 0.16 0
1.92 0.12 0
1.96 0.12 0
1.92 0.16 0
1.96 0.16 0
1.96 0.12 0
2 0.12 0
1.96 0.16 0
2 0.16 0
0 0.16 0
0.04 0.16 0
0 0.2 0
0.04 0.2 0
0.04 0.16 0
0.08 0.16 0
0.04 0.2 0
0.08 0.2 0
0.08 0.16 0
0.12 0.16 0
0.08 0.2 0
0.12 0.2 0
0.12 0.16 0
0.16 0.16 0
0.12 0.2 0
0.16 0.2 0
0.16 0.16 0
0.2 0.16 0
0.16 0.2 0
0.2 0.2 0
0.2 0.16 0
0.24 0.16 0
0.2 0.2 0
0.24 0.2 0
0.24 0.16 0
0.28 0.16 0
0.24 0.2 0
0.28 0.2 0
0.28 0.16 0
0.32 0.16 0
0.28 0.2 0
0.32 0.2 0
0.32 0.16 0
0.36 0.16 0
0.32 0.2 0
0.36 0.2 0
0.36 0.16 0
0.4 0.16 0
0.36 0.2 0
0.4 0.2 0
0.4 0.16 0
0.44 0.16 0
0.4 0.2 0
0.44 0.2 0
0.44 0.16 0
0.48 0.16 0
0.44 0.2 0
0.48 0.2 0
0.48 0.16 0
0.52 0.16 0
0.48 0.2 0
0.52 0.2 0
0.52 0.16 0
0.56 0.16 0
0.52 0.2 0
0.56 0.2 0
0.56 0.16 0
0.6 0.16 0
0.56 0.2 0
0.6 0.2 0
0.6 0.16 0
0.64 0.16 0
0.6 0.2 0
0.64 0.2 0
0.64 0.16 0
0.68 0.16 0
0.64 0.2 0
0.68 0.2 0
[...]
POINT_DATA 5000
SCALARS c1 double 1
LOOKUP_TABLE default
0.00859336 0.00858454 0.0085965 0.0085877 0.00858454 0.00855826 0.0085877 0.00856148 0.00855826 0.00851507 0.00856148 0.00851838 0.00851507 0.00845582 0.00851838 0.00845926 0.00845582 0.00838158 0.00845926 0.00838519 0.00838158 0.00829354 0.00838519 0.00829736 0.00829354 0.00819294 0.00829736 0.00819701 0.00819294 0.00808095 0.00819701 0.00808532 0.00808095 0.00795863 0.00808532 0.00796336 0.00795863 0.00782676 0.00796336 0.00783193 0.00782676 0.00768625 0.00783193 0.00769197 0.00768625 0.0075363 0.00769197 0.00754264 0.0075363 0.00738151 0.00754264 0.00738888 0.00738151 0.00720321 0.00738888 0.00721111 0.00720321 0.00707198 0.00721111 0.00708412 0.00707198 0.00670949 0.00708412 0.00671461 0.00670949 0.00719892 0.00671461 0.00724743 0.00719892 0.00470648 0.00724743 0.00461723 0.00470648 0.0643906 0.00461723 0.0372992 0.0643906 0.462518 0.0372992 0.393959 0.462518 0.921314 0.393959 0.845776 0.921314 0.995674 0.845776 0.997767 0.995674 0.996562 0.997767 0.995192 0.996562 0.99736 0.995192 0.995787 0.99736 0.997331 0.995787 0.995944 0.997331 0.99736 0.995944 0.995787 0.99736 0.996562 0.995787 0.995192 0.996562 0.995674 0.995192 0.997767 0.995674 0.921314 0.997767 0.845776 0.921314 0.462518 0.845776 0.393959 0.462518 0.0643906 0.393959 0.0372992 0.0643906 0.00470648 0.0372992 0.00461723 0.00470648 0.00719892 0.00461723 0.00724743 0.00719892 0.00670949 0.00724743 0.00671461 0.00670949 0.00707198 0.00671461 0.00708412 0.00707198 0.00720321 0.00708412 0.00721111 0.00720321 0.00738151 0.00721111 0.00738888 0.00738151 0.0075363 0.00738888 0.00754264 0.0075363 0.00768625 0.00754264 0.00769197 0.00768625 0.00782676 0.00769197 0.00783193 0.00782676 0.00795863 0.00783193 0.00796336 0.00795863 0.00808095 0.00796336 0.00808532 0.00808095 0.00819294 0.00808532 0.00819701 0.00819294 0.00829354 0.00819701 0.00829736 0.00829354 0.00838158 0.00829736 0.00838519 0.00838158 0.00845582 0.00838519 0.00845926 0.00845582 0.00851507 0.00845926 0.00851838 0.00851507 0.00855826 0.00851838 0.00856148 0.00855826 0.00858454 0.00856148 0.0085877 0.00858454 0.00859336 0.0085877 0.0085965 0.0085965 0.0085877 0.00860588 0.00859713 0.0085877 0.00856148 0.00859713 0.00857108 0.00856148 0.00851838 0.00857108 0.00852827 0.00851838 0.00845926 0.00852827 0.00846954 0.00845926 0.00838519 0.00846954 0.00839597 0.00838519 0.00829736 0.00839597 0.00830876 0.00829736 0.00819701 0.00830876 0.00820916 0.00819701 0.00808532 0.00820916 0.00809837 0.00808532 0.00796336 0.00809837 0.00797747 0.00796336 0.00783193 0.00797747 0.00784736 0.00783193 0.00769197 0.00784736 0.00770881 0.00769197 0.00754264 0.00770881 0.00756206 0.00754264 0.00738888 0.00756206 0.00740827 0.00738888 0.00721111 0.00740827 0.00724374 0.00721111 0.00708412 0.00724374 0.00708262 0.00708412 0.00671461 0.00708262 0.00686828 0.00671461 0.00724743 0.00686828 0.00681762 0.00724743 0.00461723 0.00681762 0.00609528 0.00461723 0.0372992 0.00609528 0.00717942 0.0372992 0.393959 0.00717942 0.222271 0.393959 0.845776 0.222271 0.614338 0.845776 0.997767 0.614338 0.947753 0.997767 0.995192 0.947753 0.997231 0.995192 0.995787 0.997231 0.995884 0.995787 0.995944 0.995884 0.996303 0.995944 0.995787 0.996303 0.995884 0.995787 0.995192 0.995884 0.997231 0.995192 0.997767 0.997231 0.947753 0.997767 0.845776 0.947753 0.614338 0.845776 0.393959 0.614338 0.222271 0.393959 0.0372992 0.222271 0.00717942 0.0372992 0.00461723 0.00717942 0.00609528 0.00461723 0.00724743 0.00609528 0.00681762 0.00724743 0.00671461 0.00681762 0.00686828 0.00671461 0.00708412 0.00686828 0.00708262 0.00708412 0.00721111 0.00708262 0.00724374 0.00721111 0.00738888 0.00724374 0.00740827 0.00738888 0.00754264 0.00740827 0.00756206 0.00754264 0.00769197 0.00756206 0.00770881 0.00769197 0.00783193 0.00770881 0.00784736 0.00783193 0.00796336 0.00784736 0.00797747 0.00796336 0.00808532 0.00797747 0.00809837 0.00808532 0.00819701 0.00809837 0.00820916 0.00819701 0.00829736 0.00820916 0.00830876 0.00829736 0.00838519 0.00830876 0.00839597 0.00838519 0.00845926 0.00839597 0.00846954 0.00845926 0.00851838 0.00846954 0.00852827 0.00851838 0.00856148 0.00852827 0.00857108 0.00856148 0.0085877 0.00857108 0.00859713 0.0085877 0.0085965 0.00859713 0.00860588 0.00860588 0.00859713 0.00862138 0.00861273 0.00859713 0.00857108 0.00861273 0.00858695 0.00857108 0.00852827 0.00858695 0.0085446 0.00852827 0.00846954 0.0085446 0.00848651 0.00846954 0.00839597 0.00848651 0.00841376 0.00839597 0.00830876 0.00841376 0.00832757 0.00830876 0.00820916 0.00832757 0.0082292 0.00820916 0.00809837 0.0082292 0.00811987 0.00809837 0.00797747 0.00811987 0.00800069 0.00797747 0.00784736 0.00800069 0.00787267 0.00784736 0.00770881 0.00787267 0.00773653 0.00770881 0.00756206 0.00773653 0.00759319 0.00756206 0.00740827 0.00759319 0.00744186 0.00740827 0.00724374 0.00744186 0.00728769 0.00724374 0.00708262 0.00728769 0.00711201 0.00708262 0.00686828 0.00711201 0.00698953 0.00686828 0.00681762 0.00698953 0.00663707 0.00681762 0.00609528 0.00663707 0.00717602 0.00609528 0.00717942 0.00717602 0.00471757 0.00717942 0.222271 0.00471757 0.039927 0.222271 0.614338 0.039927 0.294077 0.614338 0.947753 0.294077 0.597252 0.947753 0.997231 0.597252 0.828426 0.997231 0.995884 0.828426 0.948478 0.995884 0.996303 0.948478 0.98302 0.996303 0.995884 0.98302 0.948478 0.995884 0.997231 0.948478 0.828426 0.997231 0.947753 0.828426 0.597252 0.947753 0.614338 0.597252 0.294077 0.614338 0.222271 0.294077 0.039927 0.222271 0.00717942 0.039927 0.00471757 0.00717942 0.00609528 0.00471757 0.00717602 0.00609528 0.00681762 0.00717602 0.00663707 0.00681762 0.00686828 0.00663707 0.00698953 0.00686828 0.00708262 0.00698953 0.00711201 0.00708262 0.00724374 0.00711201 0.00728769 0.00724374 0.00740827 0.00728769 0.00744186 0.00740827 0.00756206 0.00744186 0.00759319 0.00756206 0.00770881 0.00759319 0.00773653 0.00770881 0.00784736 0.00773653 0.00787267 0.00784736 0.00797747 0.00787267 0.00800069 0.00797747 0.00809837 0.00800069 0.00811987 0.00809837 0.00820916 0.00811987 0.0082292 0.00820916 0.00830876 0.0082292 0.00832757 0.00830876 0.00839597 0.00832757 0.00841376 0.00839597 0.00846954 0.00841376 0.00848651 0.00846954 0.00852827 0.00848651 0.0085446 0.00852827 0.00857108 0.0085446 0.00858695 0.00857108 0.00859713 0.00858695 0.00861273 0.00859713 0.00860588 0.00861273 0.00862138 0.00862138 0.00861273 0.00864282 0.00863429 0.00861273 0.00858695 0.00863429 0.00860889 0.00858695 0.0085446 0.00860889 0.00856716 0.0085446 0.00848651 0.00856716 0.00850996 0.00848651 0.00841376 0.00850996 0.00843834 0.00841376 0.00832757 0.00843834 0.00835354 0.00832757 0.0082292 0.00835354 0.00825683 0.0082292 0.00811987 0.00825683 0.00814946 0.00811987 0.00800069 0.00814946 0.00803262 0.00800069 0.00787267 0.00803262 0.00790734 0.00787267 0.00773653 0.00790734 0.00777453 0.00773653 0.00759319 0.00777453 0.00763492 0.00759319 0.00744186 0.00763492 0.00748934 0.00744186 0.00728769 0.00748934 0.00733758 0.00728769 0.00711201 0.00733758 0.00718347 0.00711201 0.00698953 0.00718347 0.00701583 0.00698953 0.00663707 0.00701583 0.00688286 0.00663707 0.00717602 0.00688286 0.0066034 0.00717602 0.00471757 0.0066034 0.0067929 0.00471757 0.039927 0.0067929 0.0036664 0.039927 0.294077 0.0036664 0.0316313 0.294077 0.597252 0.0316313 0.201063 0.597252 0.828426 0.201063 0.383795 0.828426 0.948478 0.383795 0.51543 0.948478 0.98302 0.51543 0.563207 0.98302 0.948478 0.563207 0.51543 0.948478 0.828426 0.51543 0.383795 0.828426 0.597252 0.383795 0.201063 0.597252 0.294077 0.201063 0.0316313 0.294077 0.039927 0.0316313 0.0036664 0.039927 0.00471757 0.0036664 0.0067929 0.00471757 0.00717602 0.0067929 0.0066034 0.00717602 0.00663707 0.0066034 0.00688286 0.00663707 0.00698953 0.00688286 0.00701583 0.00698953 0.00711201 0.00701583 0.00718347 0.00711201 0.00728769 0.00718347 0.00733758 0.00728769 0.00744186 0.00733758 0.00748934 0.00744186 0.00759319 0.00748934 0.00763492 0.00759319 0.00773653 0.00763492 0.00777453 0.00773653 0.00787267 0.00777453 0.00790734 0.00787267 0.00800069 0.00790734 0.00803262 0.00800069 0.00811987 0.00803262 0.00814946 0.00811987 0.0082292 0.00814946 0.00825683 0.0082292 0.00832757 0.00825683 0.00835354 0.00832757 0.00841376 0.00835354 0.00843834 0.00841376 0.00848651 0.00843834 0.00850996 0.00848651 0.0085446 0.00850996 0.00856716 0.0085446 0.00858695 0.00856716 0.00860889 0.00858695 0.00861273 0.00860889 0.00863429 0.00861273 0.00862138 0.00863429 0.00864282 0.00864282 0.00863429 0.0086699 0.00866154 0.00863429 0.00860889 0.00866154 0.00863661 0.00860889 0.00856716 0.00863661 0.00859568 0.00856716 0.00850996 0.00859568 0.00853957 0.00850996 0.00843834 0.00853957 0.00846936 0.00843834 0.00835354 0.00846936 0.00838629 0.00835354 0.00825683 0.00838629 0.00829163 0.00825683 0.00814946 0.00829163 0.00818669 0.00814946 0.00803262 0.00818669 0.00807268 0.00803262 0.00790734 0.00807268 0.00795072 0.00790734 0.00777453 0.00795072 0.00782182 0.00777453 0.00763492 0.00782182 0.00768686 0.00763492 0.00748934 0.00768686 0.00754668 0.00748934 0.00733758 0.00754668 0.00740199 0.00733758 0.00718347 0.00740199 0.00725394 0.00718347 0.00701583 0.00725394 0.00710238 0.00701583 0.00688286 0.00710238 0.0069527 0.00688286 0.0066034 0.0069527 0.00678758 0.0066034 0.0067929 0.00678758 0.00670104 0.0067929 0.0036664 0.00670104 0.0068221 0.0036664 0.0316313 0.0068221 0.00477299 0.0316313 0.201063 0.00477299 0.00583992 0.201063 0.383795 0.00583992 0.031079 0.383795 0.51543 0.031079 0.0939875 0.51543 0.563207 0.0939875 0.121373 0.563207 0.51543 0.121373 0.0939875 0.51543 0.383795 0.0939875 0.031079 0.383795 0.201063 0.031079 0.00583992 0.201063 0.0316313 0.00583992 0.00477299 0.0316313 0.0036664 0.00477299 0.0068221 0.0036664 0.0067929 0.0068221 0.00670104 0.0067929 0.0066034 0.00670104 0.00678758 0.0066034 0.00688286 0.00678758 0.0069527 0.00688286 0.00701583 0.0069527 0.00710238 0.00701583 0.00718347 0.00710238 0.00725394 0.00718347 0.00733758 0.00725394 0.00740199 0.00733758 0.00748934 0.00740199 0.00754668 0.00748934 0.00763492 0.00754668 0.00768686 0.00763492 0.00777453 0.00768686 0.00782182 0.00777453 0.00790734 0.00782182 0.00795072 0.00790734 0.00803262 0.00795072 0.00807268 0.00803262 0.00814946 0.00807268 0.00818669 0.00814946 0.00825683 0.00818669 0.00829163 0.00825683 0.00835354 0.00829163 0.00838629 0.00835354 0.00843834 0.00838629 0.00846936 0.00843834 0.00850996 0.00846936 0.00853957 0.00850996 0.00856716 0.00853957 0.00859568 0.00856716 0.00860889 0.00859568 0.00863661 0.00860889 0.00863429 0.00863661 0.00866154 0.00863429 0.00864282 0.00866154 0.0086699 0.0086699 0.00866154 0.0087023 0.00869412 0.00866154 0.00863661 0.00869412 0.00866976 0.00863661 0.00859568 0.00866976 0.00862976 0.00859568 0.00853957 0.00862976 0.00857495 0.00853957 0.00846936 0.00857495 0.00850641 0.00846936 0.00838629 0.00850641 0.00842536 0.00838629 0.00829163 0.00842536 0.00833311 0.00829163 0.00818669 0.00833311 0.00823098 0.00818669 0.00807268 0.00823098 0.00812022 0.00807268 0.00795072 0.00812022 0.00800204 0.00795072 0.00782182 0.00800204 0.00787752 0.00782182 0.00768686 0.00787752 0.00774766 0.00768686 0.00754668 0.00774766 0.00761341 0.00754668 0.00740199 0.00761341 0.00747569 0.00740199 0.00725394 0.00747569 0.00733544 0.00725394 0.00710238 0.00733544 0.00719369 0.00710238 0.0069527 0.00719369 0.00705127 0.0069527 0.00678758 0.00705127 0.00691026 0.00678758 0.00670104 0.00691026 0.00676354 0.00670104 0.0068221 0.00676354 0.00652105 0.0068221 0.00477299 0.00652105 0.00706043 0.00477299 0.00583992 0.00706043 0.00621203 0.00583992 0.031079 0.00621203 0.00446926 0.031079 0.0939875 0.00446926 0.00466171 0.0939875 0.121373 0.00466171 0.00496603 0.121373 0.0939875 0.00496603 0.00466171 0.0939875 0.031079 0.00466171 0.00446926 0.031079 0.00583992 0.00446926 0.00621203 0.00583992 0.00477299 0.00621203 0.00706043 0.00477299 0.0068221 0.00706043 0.00652105 0.0068221 0.00670104 0.00652105 0.00676354 0.00670104 0.00678758 0.00676354 0.00691026 0.00678758 0.0069527 0.00691026 0.00705127 0.0069527 0.00710238 0.00705127 0.00719369 0.00710238 0.00725394 0.00719369 0.00733544 0.00725394 0.00740199 0.00733544 0.00747569 0.00740199 0.00754668 0.00747569 0.00761341 0.00754668 0.00768686 0.00761341 0.00774766 0.00768686 0.00782182 0.00774766 0.00787752 0.00782182 0.00795072 0.00787752 0.00800204 0.00795072 0.00807268 0.00800204 0.00812022 0.00807268 0.00818669 0.00812022 0.00823098 0.00818669 0.00829163 0.00823098 0.00833311 0.00829163 0.00838629 0.00833311 0.00842536 0.00838629 0.00846936 0.00842536 0.00850641 0.00846936 0.00853957 0.00850641 0.00857495 0.00853957 0.00859568 0.00857495 0.00862976 0.00859568 0.00863661 0.00862976 0.00866976 0.00863661 0.00866154 0.00866976 0.00869412 0.00866154 0.0086699 0.00869412 0.0087023 0.0087023 0.00869412 0.00873957 0.00873161 0.00869412 0.00866976 0.00873161 0.0087079 0.00866976 0.00862976 0.0087079 0.00866897 0.00862976 0.00857495 0.00866897 0.00861564 0.00857495 0.00850641 0.00861564 0.00854898 0.00850641 0.00842536 0.00854898 0.00847021 0.00842536 0.00833311 0.00847021 0.00838066 0.00833311 0.00823098 0.00838066 0.00828166 0.00823098 0.00812022 0.00828166 0.0081745 0.00812022 0.00800204 0.0081745 0.00806044 0.00800204 0.00787752 0.00806044 0.00794064 0.00787752 0.00774766 0.00794064 0.00781618 0.00774766 0.00761341 0.00781618 0.00768811 0.00761341 0.00747569 0.00768811 0.00755744 0.00747569 0.00733544 0.00755744 0.00742522 0.00733544 0.00719369 0.00742522 0.00729249 0.00719369 0.00705127 0.00729249 0.00716054 0.00705127 0.00691026 0.00716054 0.00703033 0.00691026 0.00676354 0.00703033 0.00690599 0.00676354 0.00652105 0.00690599 0.00681214 0.00652105 0.00706043 0.00681214 0.00653279 0.00706043 0.00621203 0.00653279 0.00659635 0.00621203 0.00446926 0.00659635 0.00704616 0.00446926 0.00466171 0.00704616 0.00690492 0.00466171 0.00496603 0.00690492 0.00676311 0.00496603 0.00466171 0.00676311 0.00690492 0.00466171 0.00446926 0.00690492 0.00704616 0.00446926 0.00621203 0.00704616 0.00659635 0.00621203 0.00706043 0.00659635 0.00653279 0.00706043 0.00652105 0.00653279 0.00681214 0.00652105 0.00676354 0.00681214 0.00690599 0.00676354 0.00691026 0.00690599 0.00703033 0.00691026 0.00705127 0.00703033 0.00716054 0.00705127 0.00719369 0.00716054 0.00729249 0.00719369 0.00733544 0.00729249 0.00742522 0.00733544 0.00747569 0.00742522 0.00755744 0.00747569 0.00761341 0.00755744 0.00768811 0.00761341 0.00774766 0.00768811 0.00781618 0.00774766 0.00787752 0.00781618 0.00794064 0.00787752 0.00800204 0.00794064 0.00806044 0.00800204 0.00812022 0.00806044 0.0081745 0.00812022 0.00823098 0.0081745 0.00828166 0.00823098 0.00833311 0.00828166 0.00838066 0.00833311 0.00842536 0.00838066 0.00847021 0.00842536 0.00850641 0.00847021 0.00854898 0.00850641 0.00857495 0.00854898 0.00861564 0.00857495 0.00862976 0.00861564 0.00866897 0.00862976 0.00866976 0.00866897 0.0087079 0.00866976 0.00869412 0.0087079 0.00873161 0.00869412 0.0087023 0.00873161 0.00873957 0.00873957 0.00873161 0.00878124 0.00877351 0.00873161 0.0087079 0.00877351 0.00875052 0.0087079 0.00866897 0.00875052 0.00871277 0.00866897 0.00861564 0.00871277 0.00866108 0.00861564 0.00854898 0.00866108 0.00859649 0.00854898 0.00847021 0.00859649 0.00852024 0.00847021 0.00838066 0.00852024 0.00843362 0.00838066 0.00828166 0.00843362 0.008338 0.00828166 0.0081745 0.008338 0.0082347 0.0081745 0.00806044 0.0082347 0.008125 0.00806044 0.00794064 0.008125 0.00801013 0.00794064 0.00781618 0.00801013 0.00789125 0.00781618 0.00768811 0.00789125 0.00776946 0.00768811 0.00755744 0.00776946 0.00764586 0.00755744 0.00742522 0.00764586 0.00752155 0.00742522 0.00729249 0.00752155 0.00739769 0.00729249 0.00716054 0.00739769 0.0072755 0.00716054 0.00703033 0.0072755 0.00715645 0.00703033 0.00690599 0.00715645 0.00704162 0.00690599 0.00681214 0.00704162 0.00692656 0.00681214 0.00653279 0.00692656 0.00687056 0.00653279 0.00659635 0.00687056 0.00673798 0.00659635 0.00704616 0.00673798 0.00653583 0.00704616 0.00690492 0.00653583 0.00651211 0.00690492 0.00676311 0.00651211 0.0065262 0.00676311 0.00690492 0.0065262 0.00651211 0.00690492 0.00704616 0.00651211 0.00653583 0.00704616 0.00659635 0.00653583 0.00673798 0.00659635 0.00653279 0.00673798 0.00687056 0.00653279 0.00681214 0.00687056 0.00692656 0.00681214 0.00690599 0.00692656 0.00704162 0.00690599 0.00703033 0.00704162 0.00715645 0.00703033 0.00716054 0.00715645 0.0072755 0.00716054 0.00729249 0.0072755 0.00739769 0.00729249 0.00742522 0.00739769 0.00752155 0.00742522 0.00755744 0.00752155 0.00764586 0.00755744 0.00768811 0.00764586 0.00776946 0.00768811 0.00781618 0.00776946 0.00789125 0.00781618 0.00794064 0.00789125 0.00801013 0.00794064 0.00806044 0.00801013 0.008125 0.00806044 0.0081745 0.008125 0.0082347 0.0081745 0.00828166 0.0082347 0.008338 0.00828166 0.00838066 0.008338 0.00843362 0.00838066 0.00847021 0.00843362 0.00852024 0.00847021 0.00854898 0.00852024 0.00859649 0.00854898 0.00861564 0.00859649 0.00866108 0.00861564 0.00866897 0.00866108 0.00871277 0.00866897 0.0087079 0.00871277 0.00875052 0.0087079 0.00873161 0.00875052 0.00877351 0.00873161 0.00873957 0.00877351 0.00878124 0.00878124 0.00877351 0.00882672 0.00881926 0.00877351 0.00875052 0.00881926 0.00879704 0.00875052 0.00871277 0.00879704 0.00876057 0.00871277 0.00866108 0.00876057 0.00871065 0.00866108 0.00859649 0.00871065 0.0086483 0.00859649 0.00852024 0.0086483 0.00857473 0.00852024 0.00843362 0.00857473 0.00849125 0.00843362 0.008338 0.00849125 0.0083992 0.008338 0.0082347 0.0083992 0.00829994 0.0082347 0.008125 0.00829994 0.00819478 0.008125 0.00801013 0.00819478 0.00808497 0.00801013 0.00789125 0.00808497 0.00797172 0.00789125 0.00776946 0.00797172 0.0078562 0.00776946 0.00764586 0.0078562 0.00773955 0.00764586 0.00752155 0.00773955 0.00762293 0.00752155 0.00739769 0.00762293 0.00750754 0.00739769 0.0072755 0.00750754 0.00739466 0.0072755 0.00715645 0.00739466 0.00728571 0.00715645 0.00704162 0.00728571 0.0071824 0.00704162 0.00692656 0.0071824 0.00708819 0.00692656 0.00687056 0.00708819 0.00699071 0.00687056 0.00673798 0.00699071 0.00692908 0.00673798 0.00653583 0.00692908 0.00690813 0.00653583 0.00651211 0.00690813 0.00686715 0.00651211 0.0065262 0.00686715 0.00684707 0.0065262 0.00651211 0.00684707 0.00686715 0.00651211 0.00653583 0.00686715 0.00690813 0.00653583 0.00673798 0.00690813 0.00692908 0.00673798 0.00687056 0.00692908 0.00699071 0.00687056 0.00692656 0.00699071 0.00708819 0.00692656 0.00704162 0.00708819 0.0071824 0.00704162 0.00715645 0.0071824 0.00728571 0.00715645 0.0072755 0.00728571 0.00739466 0.0072755 0.00739769 0.00739466 0.00750754 0.00739769 0.00752155 0.00750754 0.00762293 0.00752155 0.00764586 0.00762293 0.00773955 0.00764586 0.00776946 0.00773955 0.0078562 0.00776946 0.00789125 0.0078562 0.00797172 0.00789125 0.00801013 0.00797172 0.00808497 0.00801013 0.008125 0.00808497 0.00819478 0.008125 0.0082347 0.00819478 0.00829994 0.0082347 0.008338 0.00829994 0.0083992 0.008338 0.00843362 0.0083992 0.00849125 0.00843362 0.00852024 0.00849125 0.00857473 0.00852024 0.00859649 0.00857473 0.0086483 0.00859649 0.00866108 0.0086483 0.00871065 0.00866108 0.00871277 0.00871065 0.00876057 0.00871277 0.00875052 0.00876057 0.00879704 0.00875052 0.00877351 0.00879704 0.00881926 0.00877351 0.00878124 0.00881926 0.00882672 0.00882672 0.00881926 0.00887539 0.0088682 0.00881926 0.00879704 0.0088682 0.00884681 0.00879704 0.00876057 0.00884681 0.00881171 0.00876057 0.00871065 0.00881171 0.00876366 0.00871065 0.0086483 0.00876366 0.00870368 0.0086483 0.00857473 0.00870368 0.00863294 0.00857473 0.00849125 0.00863294 0.00855273 0.00849125 0.0083992 0.00855273 0.0084644 0.0083992 0.00829994 0.0084644 0.00836931 0.00829994 0.00819478 0.00836931 0.00826877 0.00819478 0.00808497 0.00826877 0.00816406 0.00808497 0.00797172 0.00816406 0.00805644 0.00797172 0.0078562 0.00805644 0.00794709 0.0078562 0.00773955 0.00794709 0.00783719 0.00773955 0.00762293 0.00783719 0.00772794 0.00762293 0.00750754 0.00772794 0.00762054 0.00750754 0.00739466 0.00762054 0.0075163 0.