# vtk DataFile Version 3.0
#This file was generated by the deal.II library on 2023/1/15 at 19:16:34
ASCII
DATASET UNSTRUCTURED_GRID

POINTS 5000 double
0 0 0
0.04 0 0
0 0.04 0
0.04 0.04 0
0.04 0 0
0.08 0 0
0.04 0.04 0
0.08 0.04 0
0.08 0 0
0.12 0 0
0.08 0.04 0
0.12 0.04 0
0.12 0 0
0.16 0 0
0.12 0.04 0
0.16 0.04 0
0.16 0 0
0.2 0 0
0.16 0.04 0
0.2 0.04 0
0.2 0 0
0.24 0 0
0.2 0.04 0
0.24 0.04 0
0.24 0 0
0.28 0 0
0.24 0.04 0
0.28 0.04 0
0.28 0 0
0.32 0 0
0.28 0.04 0
0.32 0.04 0
0.32 0 0
0.36 0 0
0.32 0.04 0
0.36 0.04 0
0.36 0 0
0.4 0 0
0.36 0.04 0
0.4 0.04 0
0.4 0 0
0.44 0 0
0.4 0.04 0
0.44 0.04 0
0.44 0 0
0.48 0 0
0.44 0.04 0
0.48 0.04 0
0.48 0 0
0.52 0 0
0.48 0.04 0
0.52 0.04 0
0.52 0 0
0.56 0 0
0.52 0.04 0
0.56 0.04 0
0.56 0 0
0.6 0 0
0.56 0.04 0
0.6 0.04 0
0.6 0 0
0.64 0 0
0.6 0.04 0
0.64 0.04 0
0.64 0 0
0.68 0 0
0.64 0.04 0
0.68 0.04 0
0.68 0 0
0.72 0 0
0.68 0.04 0
0.72 0.04 0
0.72 0 0
0.76 0 0
0.72 0.04 0
0.76 0.04 0
0.76 0 0
0.8 0 0
0.76 0.04 0
0.8 0.04 0
0.8 0 0
0.84 0 0
0.8 0.04 0
0.84 0.04 0
0.84 0 0
0.88 0 0
0.84 0.04 0
0.88 0.04 0
0.88 0 0
0.92 0 0
0.88 0.04 0
0.92 0.04 0
0.92 0 0
0.96 0 0
0.92 0.04 0
0.96 0.04 0
0.96 0 0
1 0 0
0.96 0.04 0
1 0.04 0
1 0 0
1.04 0 0
1 0.04 0
1.04 0.04 0
1.04 0 0
1.08 0 0
1.04 0.04 0
1.08 0.04 0
1.08 0 0
1.12 0 0
1.08 0.04 0
1.12 0.04 0
1.12 0 0
1.16 0 0
1.12 0.04 0
1.16 0.04 0
1.16 0 0
1.2 0 0
1.16 0.04 0
1.2 0.04 0
1.2 0 0
1.24 0 0
1.2 0.04 0
1.24 0.04 0
1.24 0 0
1.28 0 0
1.24 0.04 0
1.28 0.04 0
1.28 0 0
1.32 0 0
1.28 0.04 0
1.32 0.04 0
1.32 0 0
1.36 0 0
1.32 0.04 0
1.36 0.04 0
1.36 0 0
1.4 0 0
1.36 0.04 0
1.4 0.04 0
1.4 0 0
1.44 0 0
1.4 0.04 0
1.44 0.04 0
1.44 0 0
1.48 0 0
1.44 0.04 0
1.48 0.04 0
1.48 0 0
1.52 0 0
1.48 0.04 0
1.52 0.04 0
1.52 0 0
1.56 0 0
1.52 0.04 0
1.56 0.04 0
1.56 0 0
1.6 0 0
1.56 0.04 0
1.6 0.04 0
1.6 0 0
1.64 0 0
1.6 0.04 0
1.64 0.04 0
1.64 0 0
1.68 0 0
1.64 0.04 0
1.68 0.04 0
1.68 0 0
1.72 0 0
1.68 0.04 0
1.72 0.04 0
1.72 0 0
1.76 0 0
1.72 0.04 0
1.76 0.04 0
1.76 0 0
1.8 0 0
1.76 0.04 0
1.8 0.04 0
1.8 0 0
1.84 0 0
1.8 0.04 0
1.84 0.04 0
1.84 0 0
1.88 0 0
1.84 0.04 0
1.88 0.04 0
1.88 0 0
1.92 0 0
1.88 0.04 0
1.92 0.04 0
1.92 0 0
1.96 0 0
1.92 0.04 0
1.96 0.04 0
1.96 0 0
2 0 0
1.96 0.04 0
2 0.04 0
0 0.04 0
0.04 0.04 0
0 0.08 0
0.04 0.08 0
0.04 0.04 0
0.08 0.04 0
0.04 0.08 0
0.08 0.08 0
0.08 0.04 0
0.12 0.04 0
0.08 0.08 0
0.12 0.08 0
0.12 0.04 0
0.16 0.04 0
0.12 0.08 0
0.16 0.08 0
0.16 0.04 0
0.2 0.04 0
0.16 0.08 0
0.2 0.08 0
0.2 0.04 0
0.24 0.04 0
0.2 0.08 0
0.24 0.08 0
0.24 0.04 0
0.28 0.04 0
0.24 0.08 0
0.28 0.08 0
0.28 0.04 0
0.32 0.04 0
0.28 0.08 0
0.32 0.08 0
0.32 0.04 0
0.36 0.04 0
0.32 0.08 0
0.36 0.08 0
0.36 0.04 0
0.4 0.04 0
0.36 0.08 0
0.4 0.08 0
0.4 0.04 0
0.44 0.04 0
0.4 0.08 0
0.44 0.08 0
0.44 0.04 0
0.48 0.04 0
0.44 0.08 0
0.48 0.08 0
0.48 0.04 0
0.52 0.04 0
0.48 0.08 0
0.52 0.08 0
0.52 0.04 0
0.56 0.04 0
0.52 0.08 0
0.56 0.08 0
0.56 0.04 0
0.6 0.04 0
0.56 0.08 0
0.6 0.08 0
0.6 0.04 0
0.64 0.04 0
0.6 0.08 0
0.64 0.08 0
0.64 0.04 0
0.68 0.04 0
0.64 0.08 0
0.68 0.08 0
0.68 0.04 0
0.72 0.04 0
0.68 0.08 0
0.72 0.08 0
0.72 0.04 0
0.76 0.04 0
0.72 0.08 0
0.76 0.08 0
0.76 0.04 0
0.8 0.04 0
0.76 0.08 0
0.8 0.08 0
0.8 0.04 0
0.84 0.04 0
0.8 0.08 0
0.84 0.08 0
0.84 0.04 0
0.88 0.04 0
0.84 0.08 0
0.88 0.08 0
0.88 0.04 0
0.92 0.04 0
0.88 0.08 0
0.92 0.08 0
0.92 0.04 0
0.96 0.04 0
0.92 0.08 0
0.96 0.08 0
0.96 0.04 0
1 0.04 0
0.96 0.08 0
1 0.08 0
1 0.04 0
1.04 0.04 0
1 0.08 0
1.04 0.08 0
1.04 0.04 0
1.08 0.04 0
1.04 0.08 0
1.08 0.08 0
1.08 0.04 0
1.12 0.04 0
1.08 0.08 0
1.12 0.08 0
1.12 0.04 0
1.16 0.04 0
1.12 0.08 0
1.16 0.08 0
1.16 0.04 0
1.2 0.04 0
1.16 0.08 0
1.2 0.08 0
1.2 0.04 0
1.24 0.04 0
1.2 0.08 0
1.24 0.08 0
1.24 0.04 0
1.28 0.04 0
1.24 0.08 0
1.28 0.08 0
1.28 0.04 0
1.32 0.04 0
1.28 0.08 0
1.32 0.08 0
1.32 0.04 0
1.36 0.04 0
1.32 0.08 0
1.36 0.08 0
1.36 0.04 0
1.4 0.04 0
1.36 0.08 0
1.4 0.08 0
1.4 0.04 0
1.44 0.04 0
1.4 0.08 0
1.44 0.08 0
1.44 0.04 0
1.48 0.04 0
1.44 0.08 0
1.48 0.08 0
1.48 0.04 0
1.52 0.04 0
1.48 0.08 0
1.52 0.08 0
1.52 0.04 0
1.56 0.04 0
1.52 0.08 0
1.56 0.08 0
1.56 0.04 0
1.6 0.04 0
1.56 0.08 0
1.6 0.08 0
1.6 0.04 0
1.64 0.04 0
1.6 0.08 0
1.64 0.08 0
1.64 0.04 0
1.68 0.04 0
1.64 0.08 0
1.68 0.08 0
1.68 0.04 0
1.72 0.04 0
1.68 0.08 0
1.72 0.08 0
1.72 0.04 0
1.76 0.04 0
1.72 0.08 0
1.76 0.08 0
1.76 0.04 0
1.8 0.04 0
1.76 0.08 0
1.8 0.08 0
1.8 0.04 0
1.84 0.04 0
1.8 0.08 0
1.84 0.08 0
1.84 0.04 0
1.88 0.04 0
1.84 0.08 0
1.88 0.08 0
1.88 0.04 0
1.92 0.04 0
1.88 0.08 0
1.92 0.08 0
1.92 0.04 0
1.96 0.04 0
1.92 0.08 0
1.96 0.08 0
1.96 0.04 0
2 0.04 0
1.96 0.08 0
2 0.08 0
0 0.08 0
0.04 0.08 0
0 0.12 0
0.04 0.12 0
0.04 0.08 0
0.08 0.08 0
0.04 0.12 0
0.08 0.12 0
0.08 0.08 0
0.12 0.08 0
0.08 0.12 0
0.12 0.12 0
0.12 0.08 0
0.16 0.08 0
0.12 0.12 0
0.16 0.12 0
0.16 0.08 0
0.2 0.08 0
0.16 0.12 0
0.2 0.12 0
0.2 0.08 0
0.24 0.08 0
0.2 0.12 0
0.24 0.12 0
0.24 0.08 0
0.28 0.08 0
0.24 0.12 0
0.28 0.12 0
0.28 0.08 0
0.32 0.08 0
0.28 0.12 0
0.32 0.12 0
0.32 0.08 0
0.36 0.08 0
0.32 0.12 0
0.36 0.12 0
0.36 0.08 0
0.4 0.08 0
0.36 0.12 0
0.4 0.12 0
0.4 0.08 0
0.44 0.08 0
0.4 0.12 0
0.44 0.12 0
0.44 0.08 0
0.48 0.08 0
0.44 0.12 0
0.48 0.12 0
0.48 0.08 0
0.52 0.08 0
0.48 0.12 0
0.52 0.12 0
0.52 0.08 0
0.56 0.08 0
0.52 0.12 0
0.56 0.12 0
0.56 0.08 0
0.6 0.08 0
0.56 0.12 0
0.6 0.12 0
0.6 0.08 0
0.64 0.08 0
0.6 0.12 0
0.64 0.12 0
0.64 0.08 0
0.68 0.08 0
0.64 0.12 0
0.68 0.12 0
0.68 0.08 0
0.72 0.08 0
0.68 0.12 0
0.72 0.12 0
0.72 0.08 0
0.76 0.08 0
0.72 0.12 0
0.76 0.12 0
0.76 0.08 0
0.8 0.08 0
0.76 0.12 0
0.8 0.12 0
0.8 0.08 0
0.84 0.08 0
0.8 0.12 0
0.84 0.12 0
0.84 0.08 0
0.88 0.08 0
0.84 0.12 0
0.88 0.12 0
0.88 0.08 0
0.92 0.08 0
0.88 0.12 0
0.92 0.12 0
0.92 0.08 0
0.96 0.08 0
0.92 0.12 0
0.96 0.12 0
0.96 0.08 0
1 0.08 0
0.96 0.12 0
1 0.12 0
1 0.08 0
1.04 0.08 0
1 0.12 0
1.04 0.12 0
1.04 0.08 0
1.08 0.08 0
1.04 0.12 0
1.08 0.12 0
1.08 0.08 0
1.12 0.08 0
1.08 0.12 0
1.12 0.12 0
1.12 0.08 0
1.16 0.08 0
1.12 0.12 0
1.16 0.12 0
1.16 0.08 0
1.2 0.08 0
1.16 0.12 0
1.2 0.12 0
1.2 0.08 0
1.24 0.08 0
1.2 0.12 0
1.24 0.12 0
1.24 0.08 0
1.28 0.08 0
1.24 0.12 0
1.28 0.12 0
1.28 0.08 0
1.32 0.08 0
1.28 0.12 0
1.32 0.12 0
1.32 0.08 0
1.36 0.08 0
1.32 0.12 0
1.36 0.12 0
1.36 0.08 0
1.4 0.08 0
1.36 0.12 0
1.4 0.12 0
1.4 0.08 0
1.44 0.08 0
1.4 0.12 0
1.44 0.12 0
1.44 0.08 0
1.48 0.08 0
1.44 0.12 0
1.48 0.12 0
1.48 0.08 0
1.52 0.08 0
1.48 0.12 0
1.52 0.12 0
1.52 0.08 0
1.56 0.08 0
1.52 0.12 0
1.56 0.12 0
1.56 0.08 0
1.6 0.08 0
1.56 0.12 0
1.6 0.12 0
1.6 0.08 0
1.64 0.08 0
1.6 0.12 0
1.64 0.12 0
1.64 0.08 0
1.68 0.08 0
1.64 0.12 0
1.68 0.12 0
1.68 0.08 0
1.72 0.08 0
1.68 0.12 0
1.72 0.12 0
1.72 0.08 0
1.76 0.08 0
1.72 0.12 0
1.76 0.12 0
1.76 0.08 0
1.8 0.08 0
1.76 0.12 0
1.8 0.12 0
1.8 0.08 0
1.84 0.08 0
1.8 0.12 0
1.84 0.12 0
1.84 0.08 0
1.88 0.08 0
1.84 0.12 0
1.88 0.12 0
1.88 0.08 0
1.92 0.08 0
1.88 0.12 0
1.92 0.12 0
1.92 0.08 0
1.96 0.08 0
1.92 0.12 0
1.96 0.12 0
1.96 0.08 0
2 0.08 0
1.96 0.12 0
2 0.12 0
0 0.12 0
0.04 0.12 0
0 0.16 0
0.04 0.16 0
0.04 0.12 0
0.08 0.12 0
0.04 0.16 0
0.08 0.16 0
0.08 0.12 0
0.12 0.12 0
0.08 0.16 0
0.12 0.16 0
0.12 0.12 0
0.16 0.12 0
0.12 0.16 0
0.16 0.16 0
0.16 0.12 0
0.2 0.12 0
0.16 0.16 0
0.2 0.16 0
0.2 0.12 0
0.24 0.12 0
0.2 0.16 0
0.24 0.16 0
0.24 0.12 0
0.28 0.12 0
0.24 0.16 0
0.28 0.16 0
0.28 0.12 0
0.32 0.12 0
0.28 0.16 0
0.32 0.16 0
0.32 0.12 0
0.36 0.12 0
0.32 0.16 0
0.36 0.16 0
0.36 0.12 0
0.4 0.12 0
0.36 0.16 0
0.4 0.16 0
0.4 0.12 0
0.44 0.12 0
0.4 0.16 0
0.44 0.16 0
0.44 0.12 0
0.48 0.12 0
0.44 0.16 0
0.48 0.16 0
0.48 0.12 0
0.52 0.12 0
0.48 0.16 0
0.52 0.16 0
0.52 0.12 0
0.56 0.12 0
0.52 0.16 0
0.56 0.16 0
0.56 0.12 0
0.6 0.12 0
0.56 0.16 0
0.6 0.16 0
0.6 0.12 0
0.64 0.12 0
0.6 0.16 0
0.64 0.16 0
0.64 0.12 0
0.68 0.12 0
0.64 0.16 0
0.68 0.16 0
0.68 0.12 0
0.72 0.12 0
0.68 0.16 0
0.72 0.16 0
0.72 0.12 0
0.76 0.12 0
0.72 0.16 0
0.76 0.16 0
0.76 0.12 0
0.8 0.12 0
0.76 0.16 0
0.8 0.16 0
0.8 0.12 0
0.84 0.12 0
0.8 0.16 0
0.84 0.16 0
0.84 0.12 0
0.88 0.12 0
0.84 0.16 0
0.88 0.16 0
0.88 0.12 0
0.92 0.12 0
0.88 0.16 0
0.92 0.16 0
0.92 0.12 0
0.96 0.12 0
0.92 0.16 0
0.96 0.16 0
0.96 0.12 0
1 0.12 0
0.96 0.16 0
1 0.16 0
1 0.12 0
1.04 0.12 0
1 0.16 0
1.04 0.16 0
1.04 0.12 0
1.08 0.12 0
1.04 0.16 0
1.08 0.16 0
1.08 0.12 0
1.12 0.12 0
1.08 0.16 0
1.12 0.16 0
1.12 0.12 0
1.16 0.12 0
1.12 0.16 0
1.16 0.16 0
1.16 0.12 0
1.2 0.12 0
1.16 0.16 0
1.2 0.16 0
1.2 0.12 0
1.24 0.12 0
1.2 0.16 0
1.24 0.16 0
1.24 0.12 0
1.28 0.12 0
1.24 0.16 0
1.28 0.16 0
1.28 0.12 0
1.32 0.12 0
1.28 0.16 0
1.32 0.16 0
1.32 0.12 0
1.36 0.12 0
1.32 0.16 0
1.36 0.16 0
1.36 0.12 0
1.4 0.12 0
1.36 0.16 0
1.4 0.16 0
1.4 0.12 0
1.44 0.12 0
1.4 0.16 0
1.44 0.16 0
1.44 0.12 0
1.48 0.12 0
1.44 0.16 0
1.48 0.16 0
1.48 0.12 0
1.52 0.12 0
1.48 0.16 0
1.52 0.16 0
1.52 0.12 0
1.56 0.12 0
1.52 0.16 0
1.56 0.16 0
1.56 0.12 0
1.6 0.12 0
1.56 0.16 0
1.6 0.16 0
1.6 0.12 0
1.64 0.12 0
1.6 0.16 0
1.64 0.16 0
1.64 0.12 0
1.68 0.12 0
1.64 0.16 0
1.68 0.16 0
1.68 0.12 0
1.72 0.12 0
1.68 0.16 0
1.72 0.16 0
1.72 0.12 0
1.76 0.12 0
1.72 0.16 0
1.76 0.16 0
1.76 0.12 0
1.8 0.12 0
1.76 0.16 0
1.8 0.16 0
1.8 0.12 0
1.84 0.12 0
1.8 0.16 0
1.84 0.16 0
1.84 0.12 0
1.88 0.12 0
1.84 0.16 0
1.88 0.16 0
1.88 0.12 0
1.92 0.12 0
1.88 0.16 0
1.92 0.16 0
1.92 0.12 0
1.96 0.12 0
1.92 0.16 0
1.96 0.16 0
1.96 0.12 0
2 0.12 0
1.96 0.16 0
2 0.16 0
0 0.16 0
0.04 0.16 0
0 0.2 0
0.04 0.2 0
0.04 0.16 0
0.08 0.16 0
0.04 0.2 0
0.08 0.2 0
0.08 0.16 0
0.12 0.16 0
0.08 0.2 0
0.12 0.2 0
0.12 0.16 0
0.16 0.16 0
0.12 0.2 0
0.16 0.2 0
0.16 0.16 0
0.2 0.16 0
0.16 0.2 0
0.2 0.2 0
0.2 0.16 0
0.24 0.16 0
0.2 0.2 0
0.24 0.2 0
0.24 0.16 0
0.28 0.16 0
0.24 0.2 0
0.28 0.2 0
0.28 0.16 0
0.32 0.16 0
0.28 0.2 0
0.32 0.2 0
0.32 0.16 0
0.36 0.16 0
0.32 0.2 0
0.36 0.2 0
0.36 0.16 0
0.4 0.16 0
0.36 0.2 0
0.4 0.2 0
0.4 0.16 0
0.44 0.16 0
0.4 0.2 0
0.44 0.2 0
0.44 0.16 0
0.48 0.16 0
0.44 0.2 0
0.48 0.2 0
0.48 0.16 0
0.52 0.16 0
0.48 0.2 0
0.52 0.2 0
0.52 0.16 0
0.56 0.16 0
0.52 0.2 0
0.56 0.2 0
0.56 0.16 0
0.6 0.16 0
0.56 0.2 0
0.6 0.2 0
0.6 0.16 0
0.64 0.16 0
0.6 0.2 0
0.64 0.2 0
0.64 0.16 0
0.68 0.16 0
0.64 0.2 0
0.68 0.2 0
[...]
POINT_DATA 5000
SCALARS c1 double 1
LOOKUP_TABLE default
0.00627436 0.00627428 0.00627438 0.00627429 0.00627428 0.00627403 0.00627429 0.00627404 0.00627403 0.00627359 0.00627404 0.00627362 0.00627359 0.00627296 0.00627362 0.006273 0.00627296 0.0062721 0.006273 0.00627216 0.0062721 0.00627095 0.00627216 0.00627103 0.00627095 0.0062695 0.00627103 0.00626965 0.0062695 0.00626741 0.00626965 0.00626753 0.00626741 0.00626538 0.00626753 0.00626606 0.00626538 0.00625962 0.00626606 0.00625882 0.00625962 0.00626346 0.00625882 0.0062697 0.00626346 0.00622163 0.0062697 0.00620251 0.00622163 0.00634764 0.00620251 0.00643367 0.00634764 0.00581212 0.00643367 0.00551569 0.00581212 0.16734 0.00551569 0.145229 0.16734 0.598587 0.145229 0.565295 0.598587 0.978396 0.565295 0.955762 0.978396 0.995673 0.955762 0.995996 0.995673 0.994833 0.995996 0.994682 0.994833 0.995849 0.994682 0.995796 0.995849 0.99649 0.995796 0.996365 0.99649 0.997556 0.996365 0.997036 0.997556 0.998415 0.997036 0.997554 0.998415 0.998772 0.997554 0.99787 0.998772 0.998893 0.99787 0.997966 0.998893 0.998772 0.997966 0.99787 0.998772 0.998415 0.99787 0.997554 0.998415 0.997556 0.997554 0.997036 0.997556 0.99649 0.997036 0.996365 0.99649 0.995849 0.996365 0.995796 0.995849 0.994833 0.995796 0.994682 0.994833 0.995673 0.994682 0.995996 0.995673 0.978396 0.995996 0.955762 0.978396 0.598587 0.955762 0.565295 0.598587 0.16734 0.565295 0.145229 0.16734 0.00581212 0.145229 0.00551569 0.00581212 0.00634764 0.00551569 0.00643367 0.00634764 0.00622163 0.00643367 0.00620251 0.00622163 0.00626346 0.00620251 0.0062697 0.00626346 0.00625962 0.0062697 0.00625882 0.00625962 0.00626538 0.00625882 0.00626606 0.00626538 0.00626741 0.00626606 0.00626753 0.00626741 0.0062695 0.00626753 0.00626965 0.0062695 0.00627095 0.00626965 0.00627103 0.00627095 0.0062721 0.00627103 0.00627216 0.0062721 0.00627296 0.00627216 0.006273 0.00627296 0.00627359 0.006273 0.00627362 0.00627359 0.00627403 0.00627362 0.00627404 0.00627403 0.00627428 0.00627404 0.00627429 0.00627428 0.00627436 0.00627429 0.00627438 0.00627438 0.00627429 0.00627441 0.00627433 0.00627429 0.00627404 0.00627433 0.00627409 0.00627404 0.00627362 0.00627409 0.00627369 0.00627362 0.006273 0.00627369 0.0062731 0.006273 0.00627216 0.0062731 0.00627232 0.00627216 0.00627103 0.00627232 0.00627125 0.00627103 0.00626965 0.00627125 0.00627009 0.00626965 0.00626753 0.00627009 0.00626783 0.00626753 0.00626606 0.00626783 0.00626804 0.00626606 0.00625882 0.00626804 0.00625614 0.00625882 0.0062697 0.00625614 0.00628876 0.0062697 0.00620251 0.00628876 0.006143 0.00620251 0.00643367 0.006143 0.00671102 0.00643367 0.00551569 0.00671102 0.00471176 0.00551569 0.145229 0.00471176 0.0860992 0.145229 0.565295 0.0860992 0.470462 0.565295 0.955762 0.470462 0.88404 0.955762 0.995996 0.88404 0.995248 0.995996 0.994682 0.995248 0.994656 0.994682 0.995796 0.994656 0.995545 0.995796 0.996365 0.995545 0.996022 0.996365 0.997036 0.996022 0.996536 0.997036 0.997554 0.996536 0.996901 0.997554 0.99787 0.996901 0.997138 0.99787 0.997966 0.997138 0.997218 0.997966 0.99787 0.997218 0.997138 0.99787 0.997554 0.997138 0.996901 0.997554 0.997036 0.996901 0.996536 0.997036 0.996365 0.996536 0.996022 0.996365 0.995796 0.996022 0.995545 0.995796 0.994682 0.995545 0.994656 0.994682 0.995996 0.994656 0.995248 0.995996 0.955762 0.995248 0.88404 0.955762 0.565295 0.88404 0.470462 0.565295 0.145229 0.470462 0.0860992 0.145229 0.00551569 0.0860992 0.00471176 0.00551569 0.00643367 0.00471176 0.00671102 0.00643367 0.00620251 0.00671102 0.006143 0.00620251 0.0062697 0.006143 0.00628876 0.0062697 0.00625882 0.00628876 0.00625614 0.00625882 0.00626606 0.00625614 0.00626804 0.00626606 0.00626753 0.00626804 0.00626783 0.00626753 0.00626965 0.00626783 0.00627009 0.00626965 0.00627103 0.00627009 0.00627125 0.00627103 0.00627216 0.00627125 0.00627232 0.00627216 0.006273 0.00627232 0.0062731 0.006273 0.00627362 0.0062731 0.00627369 0.00627362 0.00627404 0.00627369 0.00627409 0.00627404 0.00627429 0.00627409 0.00627433 0.00627429 0.00627438 0.00627433 0.00627441 0.00627441 0.00627433 0.00627446 0.00627439 0.00627433 0.00627409 0.00627439 0.00627416 0.00627409 0.00627369 0.00627416 0.00627379 0.00627369 0.0062731 0.00627379 0.00627325 0.0062731 0.00627232 0.00627325 0.00627254 0.00627232 0.00627125 0.00627254 0.0062716 0.00627125 0.00627009 0.0062716 0.00627061 0.00627009 0.00626783 0.00627061 0.0062687 0.00626783 0.00626804 0.0062687 0.00626915 0.00626804 0.00625614 0.00626915 0.00625894 0.00625614 0.00628876 0.00625894 0.00628927 0.00628876 0.006143 0.00628927 0.00615966 0.006143 0.00671102 0.00615966 0.00667259 0.00671102 0.00471176 0.00667259 0.00484516 0.00471176 0.0860992 0.00484516 0.0186463 0.0860992 0.470462 0.0186463 0.331712 0.470462 0.88404 0.331712 0.755136 0.88404 0.995248 0.755136 0.994827 0.995248 0.994656 0.994827 0.994616 0.994656 0.995545 0.994616 0.995188 0.995545 0.996022 0.995188 0.995655 0.996022 0.996536 0.995655 0.995996 0.996536 0.996901 0.995996 0.996325 0.996901 0.997138 0.996325 0.996513 0.997138 0.997218 0.996513 0.996578 0.997218 0.997138 0.996578 0.996513 0.997138 0.996901 0.996513 0.996325 0.996901 0.996536 0.996325 0.995996 0.996536 0.996022 0.995996 0.995655 0.996022 0.995545 0.995655 0.995188 0.995545 0.994656 0.995188 0.994616 0.994656 0.995248 0.994616 0.994827 0.995248 0.88404 0.994827 0.755136 0.88404 0.470462 0.755136 0.331712 0.470462 0.0860992 0.331712 0.0186463 0.0860992 0.00471176 0.0186463 0.00484516 0.00471176 0.00671102 0.00484516 0.00667259 0.00671102 0.006143 0.00667259 0.00615966 0.006143 0.00628876 0.00615966 0.00628927 0.00628876 0.00625614 0.00628927 0.00625894 0.00625614 0.00626804 0.00625894 0.00626915 0.00626804 0.00626783 0.00626915 0.0062687 0.00626783 0.00627009 0.0062687 0.00627061 0.00627009 0.00627125 0.00627061 0.0062716 0.00627125 0.00627232 0.0062716 0.00627254 0.00627232 0.0062731 0.00627254 0.00627325 0.0062731 0.00627369 0.00627325 0.00627379 0.00627369 0.00627409 0.00627379 0.00627416 0.00627409 0.00627433 0.00627416 0.00627439 0.00627433 0.00627441 0.00627439 0.00627446 0.00627446 0.00627439 0.00627452 0.00627445 0.00627439 0.00627416 0.00627445 0.00627425 0.00627416 0.00627379 0.00627425 0.00627391 0.00627379 0.00627325 0.00627391 0.00627343 0.00627325 0.00627254 0.00627343 0.0062728 0.00627254 0.0062716 0.0062728 0.00627202 0.0062716 0.00627061 0.00627202 0.00627109 0.00627061 0.0062687 0.00627109 0.00627006 0.0062687 0.00626915 0.00627006 0.00626876 0.00626915 0.00625894 0.00626876 0.00626811 0.00625894 0.00628927 0.00626811 0.00626499 0.00628927 0.00615966 0.00626499 0.00627279 0.00615966 0.00667259 0.00627279 0.00624049 0.00667259 0.00484516 0.00624049 0.00635392 0.00484516 0.0186463 0.00635392 0.00543085 0.0186463 0.331712 0.00543085 0.170634 0.331712 0.755136 0.170634 0.556601 0.755136 0.994827 0.556601 0.921179 0.994827 0.994616 0.921179 0.997491 0.994616 0.995188 0.997491 0.993839 0.995188 0.995655 0.993839 0.995279 0.995655 0.995996 0.995279 0.995601 0.995996 0.996325 0.995601 0.995791 0.996325 0.996513 0.995791 0.995931 0.996513 0.996578 0.995931 0.995983 0.996578 0.996513 0.995983 0.995931 0.996513 0.996325 0.995931 0.995791 0.996325 0.995996 0.995791 0.995601 0.995996 0.995655 0.995601 0.995279 0.995655 0.995188 0.995279 0.993839 0.995188 0.994616 0.993839 0.997491 0.994616 0.994827 0.997491 0.921179 0.994827 0.755136 0.921179 0.556601 0.755136 0.331712 0.556601 0.170634 0.331712 0.0186463 0.170634 0.00543085 0.0186463 0.00484516 0.00543085 0.00635392 0.00484516 0.00667259 0.00635392 0.00624049 0.00667259 0.00615966 0.00624049 0.00627279 0.00615966 0.00628927 0.00627279 0.00626499 0.00628927 0.00625894 0.00626499 0.00626811 0.00625894 0.00626915 0.00626811 0.00626876 0.00626915 0.0062687 0.00626876 0.00627006 0.0062687 0.00627061 0.00627006 0.00627109 0.00627061 0.0062716 0.00627109 0.00627202 0.0062716 0.00627254 0.00627202 0.0062728 0.00627254 0.00627325 0.0062728 0.00627343 0.00627325 0.00627379 0.00627343 0.00627391 0.00627379 0.00627416 0.00627391 0.00627425 0.00627416 0.00627439 0.00627425 0.00627445 0.00627439 0.00627446 0.00627445 0.00627452 0.00627452 0.00627445 0.00627457 0.00627451 0.00627445 0.00627425 0.00627451 0.00627433 0.00627425 0.00627391 0.00627433 0.00627402 0.00627391 0.00627343 0.00627402 0.0062736 0.00627343 0.0062728 0.0062736 0.00627306 0.0062728 0.00627202 0.00627306 0.00627242 0.00627202 0.00627109 0.00627242 0.00627164 0.00627109 0.00627006 0.00627164 0.00627101 0.00627006 0.00626876 0.00627101 0.00626961 0.00626876 0.00626811 0.00626961 0.00627147 0.00626811 0.00626499 0.00627147 0.0062616 0.00626499 0.00627279 0.0062616 0.00630069 0.00627279 0.00624049 0.00630069 0.00615449 0.00624049 0.00635392 0.00615449 0.00677329 0.00635392 0.00543085 0.00677329 0.00474608 0.00543085 0.170634 0.00474608 0.0276846 0.170634 0.556601 0.0276846 0.310192 0.556601 0.921179 0.310192 0.682843 0.921179 0.997491 0.682843 0.971452 0.997491 0.993839 0.971452 0.997587 0.993839 0.995279 0.997587 0.994315 0.995279 0.995601 0.994315 0.994619 0.995601 0.995791 0.994619 0.995158 0.995791 0.995931 0.995158 0.995369 0.995931 0.995983 0.995369 0.995425 0.995983 0.995931 0.995425 0.995369 0.995931 0.995791 0.995369 0.995158 0.995791 0.995601 0.995158 0.994619 0.995601 0.995279 0.994619 0.994315 0.995279 0.993839 0.994315 0.997587 0.993839 0.997491 0.997587 0.971452 0.997491 0.921179 0.971452 0.682843 0.921179 0.556601 0.682843 0.310192 0.556601 0.170634 0.310192 0.0276846 0.170634 0.00543085 0.0276846 0.00474608 0.00543085 0.00635392 0.00474608 0.00677329 0.00635392 0.00624049 0.00677329 0.00615449 0.00624049 0.00627279 0.00615449 0.00630069 0.00627279 0.00626499 0.00630069 0.0062616 0.00626499 0.00626811 0.0062616 0.00627147 0.00626811 0.00626876 0.00627147 0.00626961 0.00626876 0.00627006 0.00626961 0.00627101 0.00627006 0.00627109 0.00627101 0.00627164 0.00627109 0.00627202 0.00627164 0.00627242 0.00627202 0.0062728 0.00627242 0.00627306 0.0062728 0.00627343 0.00627306 0.0062736 0.00627343 0.00627391 0.0062736 0.00627402 0.00627391 0.00627425 0.00627402 0.00627433 0.00627425 0.00627445 0.00627433 0.00627451 0.00627445 0.00627452 0.00627451 0.00627457 0.00627457 0.00627451 0.00627462 0.00627456 0.00627451 0.00627433 0.00627456 0.0062744 0.00627433 0.00627402 0.0062744 0.00627413 0.00627402 0.0062736 0.00627413 0.00627375 0.0062736 0.00627306 0.00627375 0.00627329 0.00627306 0.00627242 0.00627329 0.00627274 0.00627242 0.00627164 0.00627274 0.00627215 0.00627164 0.00627101 0.00627215 0.00627152 0.00627101 0.00626961 0.00627152 0.00627116 0.00626961 0.00627147 0.00627116 0.00627026 0.00627147 0.0062616 0.00627026 0.00627282 0.0062616 0.00630069 0.00627282 0.00626448 0.00630069 0.00615449 0.00626448 0.00630341 0.00615449 0.00677329 0.00630341 0.00616045 0.00677329 0.00474608 0.00616045 0.00667824 0.00474608 0.0276846 0.00667824 0.00359236 0.0276846 0.310192 0.00359236 0.0817514 0.310192 0.682843 0.0817514 0.369723 0.682843 0.971452 0.369723 0.695038 0.971452 0.997587 0.695038 0.943121 0.997587 0.994315 0.943121 0.996248 0.994315 0.994619 0.996248 0.995726 0.994619 0.995158 0.995726 0.995026 0.995158 0.995369 0.995026 0.994798 0.995369 0.995425 0.994798 0.994831 0.995425 0.995369 0.994831 0.994798 0.995369 0.995158 0.994798 0.995026 0.995158 0.994619 0.995026 0.995726 0.994619 0.994315 0.995726 0.996248 0.994315 0.997587 0.996248 0.943121 0.997587 0.971452 0.943121 0.695038 0.971452 0.682843 0.695038 0.369723 0.682843 0.310192 0.369723 0.0817514 0.310192 0.0276846 0.0817514 0.00359236 0.0276846 0.00474608 0.00359236 0.00667824 0.00474608 0.00677329 0.00667824 0.00616045 0.00677329 0.00615449 0.00616045 0.00630341 0.00615449 0.00630069 0.00630341 0.00626448 0.00630069 0.0062616 0.00626448 0.00627282 0.0062616 0.00627147 0.00627282 0.00627026 0.00627147 0.00626961 0.00627026 0.00627116 0.00626961 0.00627101 0.00627116 0.00627152 0.00627101 0.00627164 0.00627152 0.00627215 0.00627164 0.00627242 0.00627215 0.00627274 0.00627242 0.00627306 0.00627274 0.00627329 0.00627306 0.0062736 0.00627329 0.00627375 0.0062736 0.00627402 0.00627375 0.00627413 0.00627402 0.00627433 0.00627413 0.0062744 0.00627433 0.00627451 0.0062744 0.00627456 0.00627451 0.00627457 0.00627456 0.00627462 0.00627462 0.00627456 0.00627464 0.00627459 0.00627456 0.0062744 0.00627459 0.00627444 0.0062744 0.00627413 0.00627444 0.0062742 0.00627413 0.00627375 0.0062742 0.00627386 0.00627375 0.00627329 0.00627386 0.00627345 0.00627329 0.00627274 0.00627345 0.00627298 0.00627274 0.00627215 0.00627298 0.00627248 0.00627215 0.00627152 0.00627248 0.00627199 0.00627152 0.00627116 0.00627199 0.00627158 0.00627116 0.00627026 0.00627158 0.00627137 0.00627026 0.00627282 0.00627137 0.0062715 0.00627282 0.00626448 0.0062715 0.00627213 0.00626448 0.00630341 0.00627213 0.00627354 0.00630341 0.00616045 0.00627354 0.00627543 0.00616045 0.00667824 0.00627543 0.00629538 0.00667824 0.00359236 0.00629538 0.00658944 0.00359236 0.0817514 0.00658944 0.003608 0.0817514 0.369723 0.003608 0.086337 0.369723 0.695038 0.086337 0.330129 0.695038 0.943121 0.330129 0.599615 0.943121 0.996248 0.599615 0.823143 0.996248 0.995726 0.823143 0.963924 0.995726 0.995026 0.963924 0.993874 0.995026 0.994798 0.993874 0.99392 0.994798 0.994831 0.99392 0.994553 0.994831 0.994798 0.994553 0.99392 0.994798 0.995026 0.99392 0.993874 0.995026 0.995726 0.993874 0.963924 0.995726 0.996248 0.963924 0.823143 0.996248 0.943121 0.823143 0.599615 0.943121 0.695038 0.599615 0.330129 0.695038 0.369723 0.330129 0.086337 0.369723 0.0817514 0.086337 0.003608 0.0817514 0.00359236 0.003608 0.00658944 0.00359236 0.00667824 0.00658944 0.00629538 0.00667824 0.00616045 0.00629538 0.00627543 0.00616045 0.00630341 0.00627543 0.00627354 0.00630341 0.00626448 0.00627354 0.00627213 0.00626448 0.00627282 0.00627213 0.0062715 0.00627282 0.00627026 0.0062715 0.00627137 0.00627026 0.00627116 0.00627137 0.00627158 0.00627116 0.00627152 0.00627158 0.00627199 0.00627152 0.00627215 0.00627199 0.00627248 0.00627215 0.00627274 0.00627248 0.00627298 0.00627274 0.00627329 0.00627298 0.00627345 0.00627329 0.00627375 0.00627345 0.00627386 0.00627375 0.00627413 0.00627386 0.0062742 0.00627413 0.0062744 0.0062742 0.00627444 0.0062744 0.00627456 0.00627444 0.00627459 0.00627456 0.00627462 0.00627459 0.00627464 0.00627464 0.00627459 0.00627464 0.00627459 0.00627459 0.00627444 0.00627459 0.00627445 0.00627444 0.0062742 0.00627445 0.00627423 0.0062742 0.00627386 0.00627423 0.00627392 0.00627386 0.00627345 0.00627392 0.00627354 0.00627345 0.00627298 0.00627354 0.00627311 0.00627298 0.00627248 0.00627311 0.00627265 0.00627248 0.00627199 0.00627265 0.0062722 0.00627199 0.00627158 0.0062722 0.00627178 0.00627158 0.00627137 0.00627178 0.00627153 0.00627137 0.0062715 0.00627153 0.00627126 0.0062715 0.00627213 0.00627126 0.00627189 0.00627213 0.00627354 0.00627189 0.00626977 0.00627354 0.00627543 0.00626977 0.00627835 0.00627543 0.00629538 0.00627835 0.00623825 0.00629538 0.00658944 0.00623825 0.00629735 0.00658944 0.003608 0.00629735 0.00660257 0.003608 0.086337 0.00660257 0.00341701 0.086337 0.330129 0.00341701 0.0392804 0.330129 0.599615 0.0392804 0.212497 0.599615 0.823143 0.212497 0.415765 0.823143 0.963924 0.415765 0.593284 0.963924 0.993874 0.593284 0.71448 0.993874 0.99392 0.71448 0.776969 0.99392 0.994553 0.776969 0.795901 0.994553 0.99392 0.795901 0.776969 0.99392 0.993874 0.776969 0.71448 0.993874 0.963924 0.71448 0.593284 0.963924 0.823143 0.593284 0.415765 0.823143 0.599615 0.415765 0.212497 0.599615 0.330129 0.212497 0.0392804 0.330129 0.086337 0.0392804 0.00341701 0.086337 0.003608 0.00341701 0.00660257 0.003608 0.00658944 0.00660257 0.00629735 0.00658944 0.00629538 0.00629735 0.00623825 0.00629538 0.00627543 0.00623825 0.00627835 0.00627543 0.00627354 0.00627835 0.00626977 0.00627354 0.00627213 0.00626977 0.00627189 0.00627213 0.0062715 0.00627189 0.00627126 0.0062715 0.00627137 0.00627126 0.00627153 0.00627137 0.00627158 0.00627153 0.00627178 0.00627158 0.00627199 0.00627178 0.0062722 0.00627199 0.00627248 0.0062722 0.00627265 0.00627248 0.00627298 0.00627265 0.00627311 0.00627298 0.00627345 0.00627311 0.00627354 0.00627345 0.00627386 0.00627354 0.00627392 0.00627386 0.0062742 0.00627392 0.00627423 0.0062742 0.00627444 0.00627423 0.00627445 0.00627444 0.00627459 0.00627445 0.00627459 0.00627459 0.00627464 0.00627459 0.00627464 0.00627464 0.00627459 0.00627461 0.00627456 0.00627459 0.00627445 0.00627456 0.00627443 0.00627445 0.00627423 0.00627443 0.00627422 0.00627423 0.00627392 0.00627422 0.00627392 0.00627392 0.00627354 0.00627392 0.00627356 0.00627354 0.00627311 0.00627356 0.00627314 0.00627311 0.00627265 0.00627314 0.00627268 0.00627265 0.0062722 0.00627268 0.0062722 0.0062722 0.00627178 0.0062722 0.00627174 0.00627178 0.00627153 0.00627174 0.00627127 0.00627153 0.00627126 0.00627127 0.00627092 0.00627126 0.00627189 0.00627092 0.00627013 0.00627189 0.00626977 0.00627013 0.00627073 0.00626977 0.00627835 0.00627073 0.00626463 0.00627835 0.00623825 0.00626463 0.00628289 0.00623825 0.00629735 0.00628289 0.00622138 0.00629735 0.00660257 0.00622138 0.00630093 0.00660257 0.00341701 0.00630093 0.00655688 0.00341701 0.0392804 0.00655688 0.00449833 0.0392804 0.212497 0.00449833 0.00641305 0.212497 0.415765 0.00641305 0.0648322 0.415765 0.593284 0.0648322 0.17758 0.593284 0.71448 0.17758 0.273211 0.71448 0.776969 0.273211 0.332228 0.776969 0.795901 0.332228 0.351693 0.795901 0.776969 0.351693 0.332228 0.776969 0.71448 0.332228 0.273211 0.71448 0.593284 0.273211 0.17758 0.593284 0.415765 0.17758 0.0648322 0.415765 0.212497 0.0648322 0.00641305 0.212497 0.0392804 0.00641305 0.00449833 0.0392804 0.00341701 0.00449833 0.00655688 0.00341701 0.00660257 0.00655688 0.00630093 0.00660257 0.00629735 0.00630093 0.00622138 0.00629735 0.00623825 0.00622138 0.00628289 0.00623825 0.00627835 0.00628289 0.00626463 0.00627835 0.00626977 0.00626463 0.00627073 0.00626977 0.00627189 0.00627073 0.00627013 0.00627189 0.00627126 0.00627013 0.00627092 0.00627126 0.00627153 0.00627092 0.00627127 0.00627153 0.00627178 0.00627127 0.00627174 0.00627178 0.0062722 0.00627174 0.0062722 0.0062722 0.00627265 0.0062722 0.00627268 0.00627265 0.00627311 0.00627268 0.00627314 0.00627311 0.00627354 0.00627314 0.00627356 0.00627354 0.00627392 0.00627356 0.00627392 0.00627392 0.00627423 0.00627392 0.00627422 0.00627423 0.00627445 0.00627422 0.00627443 0.00627445 0.00627459 0.00627443 0.00627456 0.00627459 0.00627464 0.00627456 0.00627461 0.00627461 0.00627456 0.00627455 0.0062745 0.00627456 0.00627443 0.0062745 0.00627438 0.00627443 0.00627422 0.00627438 0.00627416 0.00627422 0.00627392 0.00627416 0.00627387 0.00627392 0.00627356 0.00627387 0.00627351 0.00627356 0.00627314 0.00627351 0.00627308 0.00627314 0.00627268 0.00627308 0.0062726 0.00627268 0.0062722 0.0062726 0.00627208 0.0062722 0.00627174 0.00627208 0.00627151 0.00627174 0.00627127 0.00627151 0.0062709 0.00627127 0.00627092 0.0062709 0.00627018 0.00627092 0.00627013 0.00627018 0.00626939 0.00627013 0.00627073 0.00626939 0.00626794 0.00627073 0.00626463 0.00626794 0.00626727 0.00626463 0.00628289 0.00626727 0.00626011 0.00628289 0.00622138 0.00626011 0.00626795 0.00622138 0.00630093 0.00626795 0.00625168 0.00630093 0.00655688 0.00625168 0.00613533 0.00655688 0.00449833 0.00613533 0.00685348 0.00449833 0.00641305 0.00685348 0.00579608 0.00641305 0.0648322 0.00579608 0.00444821 0.0648322 0.17758 0.00444821 0.0060871 0.17758 0.273211 0.0060871 0.00857792 0.273211 0.332228 0.00857792 0.0132997 0.332228 0.351693 0.0132997 0.0168593 0.351693 0.332228 0.0168593 0.0132997 0.332228 0.273211 0.0132997 0.00857792 0.273211 0.17758 0.00857792 0.0060871 0.17758 0.0648322 0.0060871 0.00444821 0.0648322 0.00641305 0.00444821 0.00579608 0.00641305 0.00449833 0.00579608 0.00685348 0.00449833 0.00655688 0.00685348 0.00613533 0.00655688 0.00630093 0.00613533 0.00625168 0.00630093 0.00622138 0.00625168 0.00626795 0.00622138 0.00628289 0.00626795 0.00626011 0.00628289 0.00626463 0.00626011 0.00626727 0.00626463 0.00627073 0.00626727 0.00626794 0.006