# vtk DataFile Version 3.0
#This file was generated by the deal.II library on 2023/1/15 at 19:19:54
ASCII
DATASET UNSTRUCTURED_GRID

POINTS 5000 double
0 0 0
0.04 0 0
0 0.04 0
0.04 0.04 0
0.04 0 0
0.08 0 0
0.04 0.04 0
0.08 0.04 0
0.08 0 0
0.12 0 0
0.08 0.04 0
0.12 0.04 0
0.12 0 0
0.16 0 0
0.12 0.04 0
0.16 0.04 0
0.16 0 0
0.2 0 0
0.16 0.04 0
0.2 0.04 0
0.2 0 0
0.24 0 0
0.2 0.04 0
0.24 0.04 0
0.24 0 0
0.28 0 0
0.24 0.04 0
0.28 0.04 0
0.28 0 0
0.32 0 0
0.28 0.04 0
0.32 0.04 0
0.32 0 0
0.36 0 0
0.32 0.04 0
0.36 0.04 0
0.36 0 0
0.4 0 0
0.36 0.04 0
0.4 0.04 0
0.4 0 0
0.44 0 0
0.4 0.04 0
0.44 0.04 0
0.44 0 0
0.48 0 0
0.44 0.04 0
0.48 0.04 0
0.48 0 0
0.52 0 0
0.48 0.04 0
0.52 0.04 0
0.52 0 0
0.56 0 0
0.52 0.04 0
0.56 0.04 0
0.56 0 0
0.6 0 0
0.56 0.04 0
0.6 0.04 0
0.6 0 0
0.64 0 0
0.6 0.04 0
0.64 0.04 0
0.64 0 0
0.68 0 0
0.64 0.04 0
0.68 0.04 0
0.68 0 0
0.72 0 0
0.68 0.04 0
0.72 0.04 0
0.72 0 0
0.76 0 0
0.72 0.04 0
0.76 0.04 0
0.76 0 0
0.8 0 0
0.76 0.04 0
0.8 0.04 0
0.8 0 0
0.84 0 0
0.8 0.04 0
0.84 0.04 0
0.84 0 0
0.88 0 0
0.84 0.04 0
0.88 0.04 0
0.88 0 0
0.92 0 0
0.88 0.04 0
0.92 0.04 0
0.92 0 0
0.96 0 0
0.92 0.04 0
0.96 0.04 0
0.96 0 0
1 0 0
0.96 0.04 0
1 0.04 0
1 0 0
1.04 0 0
1 0.04 0
1.04 0.04 0
1.04 0 0
1.08 0 0
1.04 0.04 0
1.08 0.04 0
1.08 0 0
1.12 0 0
1.08 0.04 0
1.12 0.04 0
1.12 0 0
1.16 0 0
1.12 0.04 0
1.16 0.04 0
1.16 0 0
1.2 0 0
1.16 0.04 0
1.2 0.04 0
1.2 0 0
1.24 0 0
1.2 0.04 0
1.24 0.04 0
1.24 0 0
1.28 0 0
1.24 0.04 0
1.28 0.04 0
1.28 0 0
1.32 0 0
1.28 0.04 0
1.32 0.04 0
1.32 0 0
1.36 0 0
1.32 0.04 0
1.36 0.04 0
1.36 0 0
1.4 0 0
1.36 0.04 0
1.4 0.04 0
1.4 0 0
1.44 0 0
1.4 0.04 0
1.44 0.04 0
1.44 0 0
1.48 0 0
1.44 0.04 0
1.48 0.04 0
1.48 0 0
1.52 0 0
1.48 0.04 0
1.52 0.04 0
1.52 0 0
1.56 0 0
1.52 0.04 0
1.56 0.04 0
1.56 0 0
1.6 0 0
1.56 0.04 0
1.6 0.04 0
1.6 0 0
1.64 0 0
1.6 0.04 0
1.64 0.04 0
1.64 0 0
1.68 0 0
1.64 0.04 0
1.68 0.04 0
1.68 0 0
1.72 0 0
1.68 0.04 0
1.72 0.04 0
1.72 0 0
1.76 0 0
1.72 0.04 0
1.76 0.04 0
1.76 0 0
1.8 0 0
1.76 0.04 0
1.8 0.04 0
1.8 0 0
1.84 0 0
1.8 0.04 0
1.84 0.04 0
1.84 0 0
1.88 0 0
1.84 0.04 0
1.88 0.04 0
1.88 0 0
1.92 0 0
1.88 0.04 0
1.92 0.04 0
1.92 0 0
1.96 0 0
1.92 0.04 0
1.96 0.04 0
1.96 0 0
2 0 0
1.96 0.04 0
2 0.04 0
0 0.04 0
0.04 0.04 0
0 0.08 0
0.04 0.08 0
0.04 0.04 0
0.08 0.04 0
0.04 0.08 0
0.08 0.08 0
0.08 0.04 0
0.12 0.04 0
0.08 0.08 0
0.12 0.08 0
0.12 0.04 0
0.16 0.04 0
0.12 0.08 0
0.16 0.08 0
0.16 0.04 0
0.2 0.04 0
0.16 0.08 0
0.2 0.08 0
0.2 0.04 0
0.24 0.04 0
0.2 0.08 0
0.24 0.08 0
0.24 0.04 0
0.28 0.04 0
0.24 0.08 0
0.28 0.08 0
0.28 0.04 0
0.32 0.04 0
0.28 0.08 0
0.32 0.08 0
0.32 0.04 0
0.36 0.04 0
0.32 0.08 0
0.36 0.08 0
0.36 0.04 0
0.4 0.04 0
0.36 0.08 0
0.4 0.08 0
0.4 0.04 0
0.44 0.04 0
0.4 0.08 0
0.44 0.08 0
0.44 0.04 0
0.48 0.04 0
0.44 0.08 0
0.48 0.08 0
0.48 0.04 0
0.52 0.04 0
0.48 0.08 0
0.52 0.08 0
0.52 0.04 0
0.56 0.04 0
0.52 0.08 0
0.56 0.08 0
0.56 0.04 0
0.6 0.04 0
0.56 0.08 0
0.6 0.08 0
0.6 0.04 0
0.64 0.04 0
0.6 0.08 0
0.64 0.08 0
0.64 0.04 0
0.68 0.04 0
0.64 0.08 0
0.68 0.08 0
0.68 0.04 0
0.72 0.04 0
0.68 0.08 0
0.72 0.08 0
0.72 0.04 0
0.76 0.04 0
0.72 0.08 0
0.76 0.08 0
0.76 0.04 0
0.8 0.04 0
0.76 0.08 0
0.8 0.08 0
0.8 0.04 0
0.84 0.04 0
0.8 0.08 0
0.84 0.08 0
0.84 0.04 0
0.88 0.04 0
0.84 0.08 0
0.88 0.08 0
0.88 0.04 0
0.92 0.04 0
0.88 0.08 0
0.92 0.08 0
0.92 0.04 0
0.96 0.04 0
0.92 0.08 0
0.96 0.08 0
0.96 0.04 0
1 0.04 0
0.96 0.08 0
1 0.08 0
1 0.04 0
1.04 0.04 0
1 0.08 0
1.04 0.08 0
1.04 0.04 0
1.08 0.04 0
1.04 0.08 0
1.08 0.08 0
1.08 0.04 0
1.12 0.04 0
1.08 0.08 0
1.12 0.08 0
1.12 0.04 0
1.16 0.04 0
1.12 0.08 0
1.16 0.08 0
1.16 0.04 0
1.2 0.04 0
1.16 0.08 0
1.2 0.08 0
1.2 0.04 0
1.24 0.04 0
1.2 0.08 0
1.24 0.08 0
1.24 0.04 0
1.28 0.04 0
1.24 0.08 0
1.28 0.08 0
1.28 0.04 0
1.32 0.04 0
1.28 0.08 0
1.32 0.08 0
1.32 0.04 0
1.36 0.04 0
1.32 0.08 0
1.36 0.08 0
1.36 0.04 0
1.4 0.04 0
1.36 0.08 0
1.4 0.08 0
1.4 0.04 0
1.44 0.04 0
1.4 0.08 0
1.44 0.08 0
1.44 0.04 0
1.48 0.04 0
1.44 0.08 0
1.48 0.08 0
1.48 0.04 0
1.52 0.04 0
1.48 0.08 0
1.52 0.08 0
1.52 0.04 0
1.56 0.04 0
1.52 0.08 0
1.56 0.08 0
1.56 0.04 0
1.6 0.04 0
1.56 0.08 0
1.6 0.08 0
1.6 0.04 0
1.64 0.04 0
1.6 0.08 0
1.64 0.08 0
1.64 0.04 0
1.68 0.04 0
1.64 0.08 0
1.68 0.08 0
1.68 0.04 0
1.72 0.04 0
1.68 0.08 0
1.72 0.08 0
1.72 0.04 0
1.76 0.04 0
1.72 0.08 0
1.76 0.08 0
1.76 0.04 0
1.8 0.04 0
1.76 0.08 0
1.8 0.08 0
1.8 0.04 0
1.84 0.04 0
1.8 0.08 0
1.84 0.08 0
1.84 0.04 0
1.88 0.04 0
1.84 0.08 0
1.88 0.08 0
1.88 0.04 0
1.92 0.04 0
1.88 0.08 0
1.92 0.08 0
1.92 0.04 0
1.96 0.04 0
1.92 0.08 0
1.96 0.08 0
1.96 0.04 0
2 0.04 0
1.96 0.08 0
2 0.08 0
0 0.08 0
0.04 0.08 0
0 0.12 0
0.04 0.12 0
0.04 0.08 0
0.08 0.08 0
0.04 0.12 0
0.08 0.12 0
0.08 0.08 0
0.12 0.08 0
0.08 0.12 0
0.12 0.12 0
0.12 0.08 0
0.16 0.08 0
0.12 0.12 0
0.16 0.12 0
0.16 0.08 0
0.2 0.08 0
0.16 0.12 0
0.2 0.12 0
0.2 0.08 0
0.24 0.08 0
0.2 0.12 0
0.24 0.12 0
0.24 0.08 0
0.28 0.08 0
0.24 0.12 0
0.28 0.12 0
0.28 0.08 0
0.32 0.08 0
0.28 0.12 0
0.32 0.12 0
0.32 0.08 0
0.36 0.08 0
0.32 0.12 0
0.36 0.12 0
0.36 0.08 0
0.4 0.08 0
0.36 0.12 0
0.4 0.12 0
0.4 0.08 0
0.44 0.08 0
0.4 0.12 0
0.44 0.12 0
0.44 0.08 0
0.48 0.08 0
0.44 0.12 0
0.48 0.12 0
0.48 0.08 0
0.52 0.08 0
0.48 0.12 0
0.52 0.12 0
0.52 0.08 0
0.56 0.08 0
0.52 0.12 0
0.56 0.12 0
0.56 0.08 0
0.6 0.08 0
0.56 0.12 0
0.6 0.12 0
0.6 0.08 0
0.64 0.08 0
0.6 0.12 0
0.64 0.12 0
0.64 0.08 0
0.68 0.08 0
0.64 0.12 0
0.68 0.12 0
0.68 0.08 0
0.72 0.08 0
0.68 0.12 0
0.72 0.12 0
0.72 0.08 0
0.76 0.08 0
0.72 0.12 0
0.76 0.12 0
0.76 0.08 0
0.8 0.08 0
0.76 0.12 0
0.8 0.12 0
0.8 0.08 0
0.84 0.08 0
0.8 0.12 0
0.84 0.12 0
0.84 0.08 0
0.88 0.08 0
0.84 0.12 0
0.88 0.12 0
0.88 0.08 0
0.92 0.08 0
0.88 0.12 0
0.92 0.12 0
0.92 0.08 0
0.96 0.08 0
0.92 0.12 0
0.96 0.12 0
0.96 0.08 0
1 0.08 0
0.96 0.12 0
1 0.12 0
1 0.08 0
1.04 0.08 0
1 0.12 0
1.04 0.12 0
1.04 0.08 0
1.08 0.08 0
1.04 0.12 0
1.08 0.12 0
1.08 0.08 0
1.12 0.08 0
1.08 0.12 0
1.12 0.12 0
1.12 0.08 0
1.16 0.08 0
1.12 0.12 0
1.16 0.12 0
1.16 0.08 0
1.2 0.08 0
1.16 0.12 0
1.2 0.12 0
1.2 0.08 0
1.24 0.08 0
1.2 0.12 0
1.24 0.12 0
1.24 0.08 0
1.28 0.08 0
1.24 0.12 0
1.28 0.12 0
1.28 0.08 0
1.32 0.08 0
1.28 0.12 0
1.32 0.12 0
1.32 0.08 0
1.36 0.08 0
1.32 0.12 0
1.36 0.12 0
1.36 0.08 0
1.4 0.08 0
1.36 0.12 0
1.4 0.12 0
1.4 0.08 0
1.44 0.08 0
1.4 0.12 0
1.44 0.12 0
1.44 0.08 0
1.48 0.08 0
1.44 0.12 0
1.48 0.12 0
1.48 0.08 0
1.52 0.08 0
1.48 0.12 0
1.52 0.12 0
1.52 0.08 0
1.56 0.08 0
1.52 0.12 0
1.56 0.12 0
1.56 0.08 0
1.6 0.08 0
1.56 0.12 0
1.6 0.12 0
1.6 0.08 0
1.64 0.08 0
1.6 0.12 0
1.64 0.12 0
1.64 0.08 0
1.68 0.08 0
1.64 0.12 0
1.68 0.12 0
1.68 0.08 0
1.72 0.08 0
1.68 0.12 0
1.72 0.12 0
1.72 0.08 0
1.76 0.08 0
1.72 0.12 0
1.76 0.12 0
1.76 0.08 0
1.8 0.08 0
1.76 0.12 0
1.8 0.12 0
1.8 0.08 0
1.84 0.08 0
1.8 0.12 0
1.84 0.12 0
1.84 0.08 0
1.88 0.08 0
1.84 0.12 0
1.88 0.12 0
1.88 0.08 0
1.92 0.08 0
1.88 0.12 0
1.92 0.12 0
1.92 0.08 0
1.96 0.08 0
1.92 0.12 0
1.96 0.12 0
1.96 0.08 0
2 0.08 0
1.96 0.12 0
2 0.12 0
0 0.12 0
0.04 0.12 0
0 0.16 0
0.04 0.16 0
0.04 0.12 0
0.08 0.12 0
0.04 0.16 0
0.08 0.16 0
0.08 0.12 0
0.12 0.12 0
0.08 0.16 0
0.12 0.16 0
0.12 0.12 0
0.16 0.12 0
0.12 0.16 0
0.16 0.16 0
0.16 0.12 0
0.2 0.12 0
0.16 0.16 0
0.2 0.16 0
0.2 0.12 0
0.24 0.12 0
0.2 0.16 0
0.24 0.16 0
0.24 0.12 0
0.28 0.12 0
0.24 0.16 0
0.28 0.16 0
0.28 0.12 0
0.32 0.12 0
0.28 0.16 0
0.32 0.16 0
0.32 0.12 0
0.36 0.12 0
0.32 0.16 0
0.36 0.16 0
0.36 0.12 0
0.4 0.12 0
0.36 0.16 0
0.4 0.16 0
0.4 0.12 0
0.44 0.12 0
0.4 0.16 0
0.44 0.16 0
0.44 0.12 0
0.48 0.12 0
0.44 0.16 0
0.48 0.16 0
0.48 0.12 0
0.52 0.12 0
0.48 0.16 0
0.52 0.16 0
0.52 0.12 0
0.56 0.12 0
0.52 0.16 0
0.56 0.16 0
0.56 0.12 0
0.6 0.12 0
0.56 0.16 0
0.6 0.16 0
0.6 0.12 0
0.64 0.12 0
0.6 0.16 0
0.64 0.16 0
0.64 0.12 0
0.68 0.12 0
0.64 0.16 0
0.68 0.16 0
0.68 0.12 0
0.72 0.12 0
0.68 0.16 0
0.72 0.16 0
0.72 0.12 0
0.76 0.12 0
0.72 0.16 0
0.76 0.16 0
0.76 0.12 0
0.8 0.12 0
0.76 0.16 0
0.8 0.16 0
0.8 0.12 0
0.84 0.12 0
0.8 0.16 0
0.84 0.16 0
0.84 0.12 0
0.88 0.12 0
0.84 0.16 0
0.88 0.16 0
0.88 0.12 0
0.92 0.12 0
0.88 0.16 0
0.92 0.16 0
0.92 0.12 0
0.96 0.12 0
0.92 0.16 0
0.96 0.16 0
0.96 0.12 0
1 0.12 0
0.96 0.16 0
1 0.16 0
1 0.12 0
1.04 0.12 0
1 0.16 0
1.04 0.16 0
1.04 0.12 0
1.08 0.12 0
1.04 0.16 0
1.08 0.16 0
1.08 0.12 0
1.12 0.12 0
1.08 0.16 0
1.12 0.16 0
1.12 0.12 0
1.16 0.12 0
1.12 0.16 0
1.16 0.16 0
1.16 0.12 0
1.2 0.12 0
1.16 0.16 0
1.2 0.16 0
1.2 0.12 0
1.24 0.12 0
1.2 0.16 0
1.24 0.16 0
1.24 0.12 0
1.28 0.12 0
1.24 0.16 0
1.28 0.16 0
1.28 0.12 0
1.32 0.12 0
1.28 0.16 0
1.32 0.16 0
1.32 0.12 0
1.36 0.12 0
1.32 0.16 0
1.36 0.16 0
1.36 0.12 0
1.4 0.12 0
1.36 0.16 0
1.4 0.16 0
1.4 0.12 0
1.44 0.12 0
1.4 0.16 0
1.44 0.16 0
1.44 0.12 0
1.48 0.12 0
1.44 0.16 0
1.48 0.16 0
1.48 0.12 0
1.52 0.12 0
1.48 0.16 0
1.52 0.16 0
1.52 0.12 0
1.56 0.12 0
1.52 0.16 0
1.56 0.16 0
1.56 0.12 0
1.6 0.12 0
1.56 0.16 0
1.6 0.16 0
1.6 0.12 0
1.64 0.12 0
1.6 0.16 0
1.64 0.16 0
1.64 0.12 0
1.68 0.12 0
1.64 0.16 0
1.68 0.16 0
1.68 0.12 0
1.72 0.12 0
1.68 0.16 0
1.72 0.16 0
1.72 0.12 0
1.76 0.12 0
1.72 0.16 0
1.76 0.16 0
1.76 0.12 0
1.8 0.12 0
1.76 0.16 0
1.8 0.16 0
1.8 0.12 0
1.84 0.12 0
1.8 0.16 0
1.84 0.16 0
1.84 0.12 0
1.88 0.12 0
1.84 0.16 0
1.88 0.16 0
1.88 0.12 0
1.92 0.12 0
1.88 0.16 0
1.92 0.16 0
1.92 0.12 0
1.96 0.12 0
1.92 0.16 0
1.96 0.16 0
1.96 0.12 0
2 0.12 0
1.96 0.16 0
2 0.16 0
0 0.16 0
0.04 0.16 0
0 0.2 0
0.04 0.2 0
0.04 0.16 0
0.08 0.16 0
0.04 0.2 0
0.08 0.2 0
0.08 0.16 0
0.12 0.16 0
0.08 0.2 0
0.12 0.2 0
0.12 0.16 0
0.16 0.16 0
0.12 0.2 0
0.16 0.2 0
0.16 0.16 0
0.2 0.16 0
0.16 0.2 0
0.2 0.2 0
0.2 0.16 0
0.24 0.16 0
0.2 0.2 0
0.24 0.2 0
0.24 0.16 0
0.28 0.16 0
0.24 0.2 0
0.28 0.2 0
0.28 0.16 0
0.32 0.16 0
0.28 0.2 0
0.32 0.2 0
0.32 0.16 0
0.36 0.16 0
0.32 0.2 0
0.36 0.2 0
0.36 0.16 0
0.4 0.16 0
0.36 0.2 0
0.4 0.2 0
0.4 0.16 0
0.44 0.16 0
0.4 0.2 0
0.44 0.2 0
0.44 0.16 0
0.48 0.16 0
0.44 0.2 0
0.48 0.2 0
0.48 0.16 0
0.52 0.16 0
0.48 0.2 0
0.52 0.2 0
0.52 0.16 0
0.56 0.16 0
0.52 0.2 0
0.56 0.2 0
0.56 0.16 0
0.6 0.16 0
0.56 0.2 0
0.6 0.2 0
0.6 0.16 0
0.64 0.16 0
0.6 0.2 0
0.64 0.2 0
0.64 0.16 0
0.68 0.16 0
0.64 0.2 0
0.68 0.2 0
[...]
POINT_DATA 5000
SCALARS c1 double 1
LOOKUP_TABLE default
0.00626779 0.00626791 0.00626775 0.00626787 0.00626791 0.00626829 0.00626787 0.00626824 0.00626829 0.00626892 0.00626824 0.00626886 0.00626892 0.00626985 0.00626886 0.00626978 0.00626985 0.00627105 0.00626978 0.00627096 0.00627105 0.00627278 0.00627096 0.00627264 0.00627278 0.00627428 0.00627264 0.00627417 0.00627428 0.00627896 0.00627417 0.00627843 0.00627896 0.00627392 0.00627843 0.00627463 0.00627392 0.00631106 0.00627463 0.00630615 0.00631106 0.00618805 0.00630615 0.00620387 0.00618805 0.00672091 0.00620387 0.00664736 0.00672091 0.00488936 0.00664736 0.0050958 0.00488936 0.0233079 0.0050958 0.0169236 0.0233079 0.368477 0.0169236 0.346749 0.368477 0.809439 0.346749 0.788673 0.809439 0.994736 0.788673 0.994084 0.994736 0.994781 0.994084 0.994742 0.994781 0.995422 0.994742 0.995352 0.995422 0.995987 0.995352 0.995918 0.995987 0.996668 0.995918 0.996547 0.996668 0.997683 0.996547 0.997174 0.997683 0.998542 0.997174 0.997681 0.998542 0.998906 0.997681 0.997991 0.998906 0.999032 0.997991 0.998086 0.999032 0.998906 0.998086 0.997991 0.998906 0.998542 0.997991 0.997681 0.998542 0.997683 0.997681 0.997174 0.997683 0.996668 0.997174 0.996547 0.996668 0.995987 0.996547 0.995918 0.995987 0.995422 0.995918 0.995352 0.995422 0.994781 0.995352 0.994742 0.994781 0.994736 0.994742 0.994084 0.994736 0.809439 0.994084 0.788673 0.809439 0.368477 0.788673 0.346749 0.368477 0.0233079 0.346749 0.0169236 0.0233079 0.00488936 0.0169236 0.0050958 0.00488936 0.00672091 0.0050958 0.00664736 0.00672091 0.00618805 0.00664736 0.00620387 0.00618805 0.00631106 0.00620387 0.00630615 0.00631106 0.00627392 0.00630615 0.00627463 0.00627392 0.00627896 0.00627463 0.00627843 0.00627896 0.00627428 0.00627843 0.00627417 0.00627428 0.00627278 0.00627417 0.00627264 0.00627278 0.00627105 0.00627264 0.00627096 0.00627105 0.00626985 0.00627096 0.00626978 0.00626985 0.00626892 0.00626978 0.00626886 0.00626892 0.00626829 0.00626886 0.00626824 0.00626829 0.00626791 0.00626824 0.00626787 0.00626791 0.00626779 0.00626787 0.00626775 0.00626775 0.00626787 0.00626762 0.00626774 0.00626787 0.00626824 0.00626774 0.00626809 0.00626824 0.00626886 0.00626809 0.00626869 0.00626886 0.00626978 0.00626869 0.00626956 0.00626978 0.00627096 0.00626956 0.0062707 0.00627096 0.00627264 0.0062707 0.00627222 0.00627264 0.00627417 0.00627222 0.00627386 0.00627417 0.00627843 0.00627386 0.00627694 0.00627843 0.00627463 0.00627694 0.00627659 0.00627463 0.00630615 0.00627659 0.00629257 0.00630615 0.00620387 0.00629257 0.00624788 0.00620387 0.00664736 0.00624788 0.00644931 0.00664736 0.0050958 0.00644931 0.00571527 0.0050958 0.0169236 0.00571527 0.00914135 0.0169236 0.346749 0.00914135 0.281565 0.346749 0.788673 0.281565 0.719791 0.788673 0.994084 0.719791 0.994026 0.994084 0.994742 0.994026 0.994986 0.994742 0.995352 0.994986 0.99511 0.995352 0.995918 0.99511 0.995712 0.995918 0.996547 0.995712 0.996221 0.996547 0.997174 0.996221 0.996677 0.997174 0.997681 0.996677 0.997037 0.997681 0.997991 0.997037 0.997264 0.997991 0.998086 0.997264 0.997342 0.998086 0.997991 0.997342 0.997264 0.997991 0.997681 0.997264 0.997037 0.997681 0.997174 0.997037 0.996677 0.997174 0.996547 0.996677 0.996221 0.996547 0.995918 0.996221 0.995712 0.995918 0.995352 0.995712 0.99511 0.995352 0.994742 0.99511 0.994986 0.994742 0.994084 0.994986 0.994026 0.994084 0.788673 0.994026 0.719791 0.788673 0.346749 0.719791 0.281565 0.346749 0.0169236 0.281565 0.00914135 0.0169236 0.0050958 0.00914135 0.00571527 0.0050958 0.00664736 0.00571527 0.00644931 0.00664736 0.00620387 0.00644931 0.00624788 0.00620387 0.00630615 0.00624788 0.00629257 0.00630615 0.00627463 0.00629257 0.00627659 0.00627463 0.00627843 0.00627659 0.00627694 0.00627843 0.00627417 0.00627694 0.00627386 0.00627417 0.00627264 0.00627386 0.00627222 0.00627264 0.00627096 0.00627222 0.0062707 0.00627096 0.00626978 0.0062707 0.00626956 0.00626978 0.00626886 0.00626956 0.00626869 0.00626886 0.00626824 0.00626869 0.00626809 0.00626824 0.00626787 0.00626809 0.00626774 0.00626787 0.00626775 0.00626774 0.00626762 0.00626762 0.00626774 0.00626741 0.00626753 0.00626774 0.00626809 0.00626753 0.00626786 0.00626809 0.00626869 0.00626786 0.00626842 0.00626869 0.00626956 0.00626842 0.00626922 0.00626956 0.0062707 0.00626922 0.00627028 0.0062707 0.00627222 0.00627028 0.00627161 0.00627222 0.00627386 0.00627161 0.00627326 0.00627386 0.00627694 0.00627326 0.00627521 0.00627694 0.00627659 0.00627521 0.00627763 0.00627659 0.00629257 0.00627763 0.00628005 0.00629257 0.00624788 0.00628005 0.00628442 0.00624788 0.00644931 0.00628442 0.0062827 0.00644931 0.00571527 0.0062827 0.00630247 0.00571527 0.00914135 0.00630247 0.00618109 0.00914135 0.281565 0.00618109 0.177873 0.281565 0.719791 0.177873 0.58698 0.719791 0.994026 0.58698 0.956222 0.994026 0.994986 0.956222 0.995885 0.994986 0.99511 0.995885 0.994466 0.99511 0.995712 0.994466 0.995522 0.995712 0.996221 0.995522 0.995772 0.996221 0.996677 0.995772 0.996203 0.996677 0.997037 0.996203 0.996477 0.997037 0.997264 0.996477 0.996658 0.997264 0.997342 0.996658 0.996716 0.997342 0.997264 0.996716 0.996658 0.997264 0.997037 0.996658 0.996477 0.997037 0.996677 0.996477 0.996203 0.996677 0.996221 0.996203 0.995772 0.996221 0.995712 0.995772 0.995522 0.995712 0.99511 0.995522 0.994466 0.99511 0.994986 0.994466 0.995885 0.994986 0.994026 0.995885 0.956222 0.994026 0.719791 0.956222 0.58698 0.719791 0.281565 0.58698 0.177873 0.281565 0.00914135 0.177873 0.00618109 0.00914135 0.00571527 0.00618109 0.00630247 0.00571527 0.00644931 0.00630247 0.0062827 0.00644931 0.00624788 0.0062827 0.00628442 0.00624788 0.00629257 0.00628442 0.00628005 0.00629257 0.00627659 0.00628005 0.00627763 0.00627659 0.00627694 0.00627763 0.00627521 0.00627694 0.00627386 0.00627521 0.00627326 0.00627386 0.00627222 0.00627326 0.00627161 0.00627222 0.0062707 0.00627161 0.00627028 0.0062707 0.00626956 0.00627028 0.00626922 0.00626956 0.00626869 0.00626922 0.00626842 0.00626869 0.00626809 0.00626842 0.00626786 0.00626809 0.00626774 0.00626786 0.00626753 0.00626774 0.00626762 0.00626753 0.00626741 0.00626741 0.00626753 0.00626714 0.00626724 0.00626753 0.00626786 0.00626724 0.00626755 0.00626786 0.00626842 0.00626755 0.00626806 0.00626842 0.00626922 0.00626806 0.00626878 0.00626922 0.00627028 0.00626878 0.00626974 0.00627028 0.00627161 0.00626974 0.00627087 0.00627161 0.00627326 0.00627087 0.00627245 0.00627326 0.00627521 0.00627245 0.00627339 0.00627521 0.00627763 0.00627339 0.00627797 0.00627763 0.00628005 0.00627797 0.00626914 0.00628005 0.00628442 0.00626914 0.00631361 0.00628442 0.0062827 0.00631361 0.00614875 0.0062827 0.00630247 0.00614875 0.00682548 0.00630247 0.00618109 0.00682548 0.00446563 0.00618109 0.177873 0.00446563 0.0591136 0.177873 0.58698 0.0591136 0.395883 0.58698 0.956222 0.395883 0.795859 0.956222 0.995885 0.795859 0.99532 0.995885 0.994466 0.99532 0.994489 0.994466 0.995522 0.994489 0.994898 0.995522 0.995772 0.994898 0.995505 0.995772 0.996203 0.995505 0.995687 0.996203 0.996477 0.995687 0.995927 0.996477 0.996658 0.995927 0.996063 0.996658 0.996716 0.996063 0.996117 0.996716 0.996658 0.996117 0.996063 0.996658 0.996477 0.996063 0.995927 0.996477 0.996203 0.995927 0.995687 0.996203 0.995772 0.995687 0.995505 0.995772 0.995522 0.995505 0.994898 0.995522 0.994466 0.994898 0.994489 0.994466 0.995885 0.994489 0.99532 0.995885 0.956222 0.99532 0.795859 0.956222 0.58698 0.795859 0.395883 0.58698 0.177873 0.395883 0.0591136 0.177873 0.00618109 0.0591136 0.00446563 0.00618109 0.00630247 0.00446563 0.00682548 0.00630247 0.0062827 0.00682548 0.00614875 0.0062827 0.00628442 0.00614875 0.00631361 0.00628442 0.00628005 0.00631361 0.00626914 0.00628005 0.00627763 0.00626914 0.00627797 0.00627763 0.00627521 0.00627797 0.00627339 0.00627521 0.00627326 0.00627339 0.00627245 0.00627326 0.00627161 0.00627245 0.00627087 0.00627161 0.00627028 0.00627087 0.00626974 0.00627028 0.00626922 0.00626974 0.00626878 0.00626922 0.00626842 0.00626878 0.00626806 0.00626842 0.00626786 0.00626806 0.00626755 0.00626786 0.00626753 0.00626755 0.00626724 0.00626753 0.00626741 0.00626724 0.00626714 0.00626714 0.00626724 0.00626682 0.00626691 0.00626724 0.00626755 0.00626691 0.00626718 0.00626755 0.00626806 0.00626718 0.00626764 0.00626806 0.00626878 0.00626764 0.00626828 0.00626878 0.00626974 0.00626828 0.0062691 0.00626974 0.00627087 0.0062691 0.00627011 0.00627087 0.00627245 0.00627011 0.0062713 0.00627245 0.00627339 0.0062713 0.00627255 0.00627339 0.00627797 0.00627255 0.00627424 0.00627797 0.00626914 0.00627424 0.00627442 0.00626914 0.00631361 0.00627442 0.00628011 0.00631361 0.00614875 0.00628011 0.00626181 0.00614875 0.00682548 0.00626181 0.00633152 0.00682548 0.00446563 0.00633152 0.00602633 0.00446563 0.0591136 0.00602633 0.00550351 0.0591136 0.395883 0.00550351 0.183844 0.395883 0.795859 0.183844 0.550036 0.795859 0.99532 0.550036 0.895512 0.99532 0.994489 0.895512 0.99733 0.994489 0.994898 0.99733 0.994288 0.994898 0.995505 0.994288 0.994643 0.995505 0.995687 0.994643 0.995259 0.995687 0.995927 0.995259 0.99548 0.995927 0.996063 0.99548 0.99562 0.996063 0.996117 0.99562 0.995641 0.996117 0.996063 0.995641 0.99562 0.996063 0.995927 0.99562 0.99548 0.995927 0.995687 0.99548 0.995259 0.995687 0.995505 0.995259 0.994643 0.995505 0.994898 0.994643 0.994288 0.994898 0.994489 0.994288 0.99733 0.994489 0.99532 0.99733 0.895512 0.99532 0.795859 0.895512 0.550036 0.795859 0.395883 0.550036 0.183844 0.395883 0.0591136 0.183844 0.00550351 0.0591136 0.00446563 0.00550351 0.00602633 0.00446563 0.00682548 0.00602633 0.00633152 0.00682548 0.00614875 0.00633152 0.00626181 0.00614875 0.00631361 0.00626181 0.00628011 0.00631361 0.00626914 0.00628011 0.00627442 0.00626914 0.00627797 0.00627442 0.00627424 0.00627797 0.00627339 0.00627424 0.00627255 0.00627339 0.00627245 0.00627255 0.0062713 0.00627245 0.00627087 0.0062713 0.00627011 0.00627087 0.00626974 0.00627011 0.0062691 0.00626974 0.00626878 0.0062691 0.00626828 0.00626878 0.00626806 0.00626828 0.00626764 0.00626806 0.00626755 0.00626764 0.00626718 0.00626755 0.00626724 0.00626718 0.00626691 0.00626724 0.00626714 0.00626691 0.00626682 0.00626682 0.00626691 0.00626645 0.00626653 0.00626691 0.00626718 0.00626653 0.00626677 0.00626718 0.00626764 0.00626677 0.00626717 0.00626764 0.00626828 0.00626717 0.00626773 0.00626828 0.0062691 0.00626773 0.00626843 0.0062691 0.00627011 0.00626843 0.0062693 0.00627011 0.0062713 0.0062693 0.00627023 0.0062713 0.00627255 0.00627023 0.00627144 0.00627255 0.00627424 0.00627144 0.00627189 0.00627424 0.00627442 0.00627189 0.00627531 0.00627442 0.00628011 0.00627531 0.0062663 0.00628011 0.00626181 0.0062663 0.00630452 0.00626181 0.00633152 0.00630452 0.00615495 0.00633152 0.00602633 0.00615495 0.00675872 0.00602633 0.00550351 0.00675872 0.00499169 0.00550351 0.183844 0.00499169 0.0186142 0.183844 0.550036 0.0186142 0.269431 0.550036 0.895512 0.269431 0.614785 0.895512 0.99733 0.614785 0.908803 0.99733 0.994288 0.908803 0.996464 0.994288 0.994643 0.996464 0.995303 0.994643 0.995259 0.995303 0.994612 0.995259 0.99548 0.994612 0.994542 0.99548 0.99562 0.994542 0.994572 0.99562 0.995641 0.994572 0.994682 0.995641 0.99562 0.994682 0.994572 0.99562 0.99548 0.994572 0.994542 0.99548 0.995259 0.994542 0.994612 0.995259 0.994643 0.994612 0.995303 0.994643 0.994288 0.995303 0.996464 0.994288 0.99733 0.996464 0.908803 0.99733 0.895512 0.908803 0.614785 0.895512 0.550036 0.614785 0.269431 0.550036 0.183844 0.269431 0.0186142 0.183844 0.00550351 0.0186142 0.00499169 0.00550351 0.00602633 0.00499169 0.00675872 0.00602633 0.00633152 0.00675872 0.00615495 0.00633152 0.00626181 0.00615495 0.00630452 0.00626181 0.00628011 0.00630452 0.0062663 0.00628011 0.00627442 0.0062663 0.00627531 0.00627442 0.00627424 0.00627531 0.00627189 0.00627424 0.00627255 0.00627189 0.00627144 0.00627255 0.0062713 0.00627144 0.00627023 0.0062713 0.00627011 0.00627023 0.0062693 0.00627011 0.0062691 0.0062693 0.00626843 0.0062691 0.00626828 0.00626843 0.00626773 0.00626828 0.00626764 0.00626773 0.00626717 0.00626764 0.00626718 0.00626717 0.00626677 0.00626718 0.00626691 0.00626677 0.00626653 0.00626691 0.00626682 0.00626653 0.00626645 0.00626645 0.00626653 0.00626605 0.00626612 0.00626653 0.00626677 0.00626612 0.00626633 0.00626677 0.00626717 0.00626633 0.00626668 0.00626717 0.00626773 0.00626668 0.00626716 0.00626773 0.00626843 0.00626716 0.00626776 0.00626843 0.0062693 0.00626776 0.00626847 0.0062693 0.00627023 0.00626847 0.00626929 0.00627023 0.00627144 0.00626929 0.00627009 0.00627144 0.00627189 0.00627009 0.00627115 0.00627189 0.00627531 0.00627115 0.00627107 0.00627531 0.0062663 0.00627107 0.00627495 0.0062663 0.00630452 0.00627495 0.00626236 0.00630452 0.00615495 0.00626236 0.00631338 0.00615495 0.00675872 0.00631338 0.00611313 0.00675872 0.00499169 0.00611313 0.00677409 0.00499169 0.0186142 0.00677409 0.00369489 0.0186142 0.269431 0.00369489 0.0399245 0.269431 0.614785 0.0399245 0.283488 0.614785 0.908803 0.283488 0.58264 0.908803 0.996464 0.58264 0.839275 0.996464 0.995303 0.839275 0.986163 0.995303 0.994612 0.986163 0.995117 0.994612 0.994542 0.995117 0.995461 0.994542 0.994572 0.995461 0.995908 0.994572 0.994682 0.995908 0.995637 0.994682 0.994572 0.995637 0.995908 0.994572 0.994542 0.995908 0.995461 0.994542 0.994612 0.995461 0.995117 0.994612 0.995303 0.995117 0.986163 0.995303 0.996464 0.986163 0.839275 0.996464 0.908803 0.839275 0.58264 0.908803 0.614785 0.58264 0.283488 0.614785 0.269431 0.283488 0.0399245 0.269431 0.0186142 0.0399245 0.00369489 0.0186142 0.00499169 0.00369489 0.00677409 0.00499169 0.00675872 0.00677409 0.00611313 0.00675872 0.00615495 0.00611313 0.00631338 0.00615495 0.00630452 0.00631338 0.00626236 0.00630452 0.0062663 0.00626236 0.00627495 0.0062663 0.00627531 0.00627495 0.00627107 0.00627531 0.00627189 0.00627107 0.00627115 0.00627189 0.00627144 0.00627115 0.00627009 0.00627144 0.00627023 0.00627009 0.00626929 0.00627023 0.0062693 0.00626929 0.00626847 0.0062693 0.00626843 0.00626847 0.00626776 0.00626843 0.00626773 0.00626776 0.00626716 0.00626773 0.00626717 0.00626716 0.00626668 0.00626717 0.00626677 0.00626668 0.00626633 0.00626677 0.00626653 0.00626633 0.00626612 0.00626653 0.00626645 0.00626612 0.00626605 0.00626605 0.00626612 0.00626564 0.0062657 0.00626612 0.00626633 0.0062657 0.00626588 0.00626633 0.00626668 0.00626588 0.00626618 0.00626668 0.00626716 0.00626618 0.00626659 0.00626716 0.00626776 0.00626659 0.0062671 0.00626776 0.00626847 0.0062671 0.0062677 0.00626847 0.00626929 0.0062677 0.00626836 0.00626929 0.00627009 0.00626836 0.00626907 0.00627009 0.00627115 0.00626907 0.00626974 0.00627115 0.00627107 0.00626974 0.00627054 0.00627107 0.00627495 0.00627054 0.00627058 0.00627495 0.00626236 0.00627058 0.00627333 0.00626236 0.00631338 0.00627333 0.00626544 0.00631338 0.00611313 0.00626544 0.00630034 0.00611313 0.00677409 0.00630034 0.00620463 0.00677409 0.00369489 0.00620463 0.00679144 0.00369489 0.0399245 0.00679144 0.00343835 0.0399245 0.283488 0.00343835 0.0287601 0.283488 0.58264 0.0287601 0.22035 0.58264 0.839275 0.22035 0.455447 0.839275 0.986163 0.455447 0.662035 0.986163 0.995117 0.662035 0.809766 0.995117 0.995461 0.809766 0.903997 0.995461 0.995908 0.903997 0.959492 0.995908 0.995637 0.959492 0.977146 0.995637 0.995908 0.977146 0.959492 0.995908 0.995461 0.959492 0.903997 0.995461 0.995117 0.903997 0.809766 0.995117 0.986163 0.809766 0.662035 0.986163 0.839275 0.662035 0.455447 0.839275 0.58264 0.455447 0.22035 0.58264 0.283488 0.22035 0.0287601 0.283488 0.0399245 0.0287601 0.00343835 0.0399245 0.00369489 0.00343835 0.00679144 0.00369489 0.00677409 0.00679144 0.00620463 0.00677409 0.00611313 0.00620463 0.00630034 0.00611313 0.00631338 0.00630034 0.00626544 0.00631338 0.00626236 0.00626544 0.00627333 0.00626236 0.00627495 0.00627333 0.00627058 0.00627495 0.00627107 0.00627058 0.00627054 0.00627107 0.00627115 0.00627054 0.00626974 0.00627115 0.00627009 0.00626974 0.00626907 0.00627009 0.00626929 0.00626907 0.00626836 0.00626929 0.00626847 0.00626836 0.0062677 0.00626847 0.00626776 0.0062677 0.0062671 0.00626776 0.00626716 0.0062671 0.00626659 0.00626716 0.00626668 0.00626659 0.00626618 0.00626668 0.00626633 0.00626618 0.00626588 0.00626633 0.00626612 0.00626588 0.0062657 0.00626612 0.00626605 0.0062657 0.00626564 0.00626564 0.0062657 0.00626523 0.00626528 0.0062657 0.00626588 0.00626528 0.00626543 0.00626588 0.00626618 0.00626543 0.00626568 0.00626618 0.00626659 0.00626568 0.00626603 0.00626659 0.0062671 0.00626603 0.00626646 0.0062671 0.0062677 0.00626646 0.00626696 0.0062677 0.00626836 0.00626696 0.00626751 0.00626836 0.00626907 0.00626751 0.0062681 0.00626907 0.00626974 0.0062681 0.0062687 0.00626974 0.00627054 0.0062687 0.00626928 0.00627054 0.00627058 0.00626928 0.00626989 0.00627058 0.00627333 0.00626989 0.0062704 0.00627333 0.00626544 0.0062704 0.00627151 0.00626544 0.00630034 0.00627151 0.00627084 0.00630034 0.00620463 0.00627084 0.00626919 0.00620463 0.00679144 0.00626919 0.00623469 0.00679144 0.00343835 0.00623469 0.00674991 0.00343835 0.0287601 0.00674991 0.00449508 0.0287601 0.22035 0.00449508 0.00800432 0.22035 0.455447 0.00800432 0.100324 0.455447 0.662035 0.100324 0.244411 0.662035 0.809766 0.244411 0.38215 0.809766 0.903997 0.38215 0.496353 0.903997 0.959492 0.496353 0.573154 0.959492 0.977146 0.573154 0.600032 0.977146 0.959492 0.600032 0.573154 0.959492 0.903997 0.573154 0.496353 0.903997 0.809766 0.496353 0.38215 0.809766 0.662035 0.38215 0.244411 0.662035 0.455447 0.244411 0.100324 0.455447 0.22035 0.100324 0.00800432 0.22035 0.0287601 0.00800432 0.00449508 0.0287601 0.00343835 0.00449508 0.00674991 0.00343835 0.00679144 0.00674991 0.00623469 0.00679144 0.00620463 0.00623469 0.00626919 0.00620463 0.00630034 0.00626919 0.00627084 0.00630034 0.00626544 0.00627084 0.00627151 0.00626544 0.00627333 0.00627151 0.0062704 0.00627333 0.00627058 0.0062704 0.00626989 0.00627058 0.00627054 0.00626989 0.00626928 0.00627054 0.00626974 0.00626928 0.0062687 0.00626974 0.00626907 0.0062687 0.0062681 0.00626907 0.00626836 0.0062681 0.00626751 0.00626836 0.0062677 0.00626751 0.00626696 0.0062677 0.0062671 0.00626696 0.00626646 0.0062671 0.00626659 0.00626646 0.00626603 0.00626659 0.00626618 0.00626603 0.00626568 0.00626618 0.00626588 0.00626568 0.00626543 0.00626588 0.0062657 0.00626543 0.00626528 0.0062657 0.00626564 0.00626528 0.00626523 0.00626523 0.00626528 0.00626482 0.00626486 0.00626528 0.00626543 0.00626486 0.00626499 0.00626543 0.00626568 0.00626499 0.0062652 0.00626568 0.00626603 0.0062652 0.00626549 0.00626603 0.00626646 0.00626549 0.00626585 0.00626646 0.00626696 0.00626585 0.00626627 0.00626696 0.00626751 0.00626627 0.00626673 0.00626751 0.0062681 0.00626673 0.00626722 0.0062681 0.0062687 0.00626722 0.00626773 0.0062687 0.00626928 0.00626773 0.00626824 0.00626928 0.00626989 0.00626824 0.00626875 0.00626989 0.0062704 0.00626875 0.00626937 0.0062704 0.00627151 0.00626937 0.00626978 0.00627151 0.00627084 0.00626978 0.00627148 0.00627084 0.00626919 0.00627148 0.00627123 0.00626919 0.00623469 0.00627123 0.00628999 0.00623469 0.00674991 0.00628999 0.00613378 0.00674991 0.00449508 0.00613378 0.0068627 0.00449508 0.00800432 0.0068627 0.00557182 0.00800432 0.100324 0.00557182 0.00489993 0.100324 0.244411 0.00489993 0.00720402 0.244411 0.38215 0.00720402 0.0357349 0.38215 0.496353 0.0357349 0.0999254 0.496353 0.573154 0.0999254 0.150206 0.573154 0.600032 0.150206 0.16854 0.600032 0.573154 0.16854 0.150206 0.573154 0.496353 0.150206 0.0999254 0.496353 0.38215 0.0999254 0.0357349 0.38215 0.244411 0.0357349 0.00720402 0.244411 0.100324 0.00720402 0.00489993 0.100324 0.00800432 0.00489993 0.00557182 0.00800432 0.00449508 0.00557182 0.0068627 0.00449508 0.00674991 0.0068627 0.00613378 0.00674991 0.00623469 0.00613378 0.00628999 0.00623469 0.00626919 0.00628999 0.00627123 0.00626919 0.00627084 0.00627123 0.00627148 0.00627084 0.00627151 0.00627148 0.00626978 0.00627151 0.0062704 0.00626978 0.00626937 0.0062704 0.00626989 0.00626937 0.00626875 0.00626989 